<?xml version="1.0"?>
<VTKFile type="UnstructuredGrid"  version="0.1"  >
<UnstructuredGrid>
<Piece  NumberOfPoints="9261" NumberOfCells="48000">
<Points>
<DataArray  type="Float64"  NumberOfComponents="3"  format="ascii">0 0 0  0.015 0 0  0.03 0 0  0.045 0 0  0.06 0 0  0.075 0 0  0.09 0 0  0.105 0 0  0.12 0 0  0.135 0 0  0.15 0 0  0.165 0 0  0.18 0 0  0.195 0 0  0.21 0 0  0.225 0 0  0.24 0 0  0.255 0 0  0.27 0 0  0.285 0 0  0.3 0 0  0 0.015 0  0.015 0.015 0  0.03 0.015 0  0.045 0.015 0  0.06 0.015 0  0.075 0.015 0  0.09 0.015 0  0.105 0.015 0  0.12 0.015 0  0.135 0.015 0  0.15 0.015 0  0.165 0.015 0  0.18 0.015 0  0.195 0.015 0  0.21 0.015 0  0.225 0.015 0  0.24 0.015 0  0.255 0.015 0  0.27 0.015 0  0.285 0.015 0  0.3 0.015 0  0 0.03 0  0.015 0.03 0  0.03 0.03 0  0.045 0.03 0  0.06 0.03 0  0.075 0.03 0  0.09 0.03 0  0.105 0.03 0  0.12 0.03 0  0.135 0.03 0  0.15 0.03 0  0.165 0.03 0  0.18 0.03 0  0.195 0.03 0  0.21 0.03 0  0.225 0.03 0  0.24 0.03 0  0.255 0.03 0  0.27 0.03 0  0.285 0.03 0  0.3 0.03 0  0 0.045 0  0.015 0.045 0  0.03 0.045 0  0.045 0.045 0  0.06 0.045 0  0.075 0.045 0  0.09 0.045 0  0.105 0.045 0  0.12 0.045 0  0.135 0.045 0  0.15 0.045 0  0.165 0.045 0  0.18 0.045 0  0.195 0.045 0  0.21 0.045 0  0.225 0.045 0  0.24 0.045 0  0.255 0.045 0  0.27 0.045 0  0.285 0.045 0  0.3 0.045 0  0 0.06 0  0.015 0.06 0  0.03 0.06 0  0.045 0.06 0  0.06 0.06 0  0.075 0.06 0  0.09 0.06 0  0.105 0.06 0  0.12 0.06 0  0.135 0.06 0  0.15 0.06 0  0.165 0.06 0  0.18 0.06 0  0.195 0.06 0  0.21 0.06 0  0.225 0.06 0  0.24 0.06 0  0.255 0.06 0  0.27 0.06 0  0.285 0.06 0  0.3 0.06 0  0 0.075 0  0.015 0.075 0  0.03 0.075 0  0.045 0.075 0  0.06 0.075 0  0.075 0.075 0  0.09 0.075 0  0.105 0.075 0  0.12 0.075 0  0.135 0.075 0  0.15 0.075 0  0.165 0.075 0  0.18 0.075 0  0.195 0.075 0  0.21 0.075 0  0.225 0.075 0  0.24 0.075 0  0.255 0.075 0  0.27 0.075 0  0.285 0.075 0  0.3 0.075 0  0 0.09 0  0.015 0.09 0  0.03 0.09 0  0.045 0.09 0  0.06 0.09 0  0.075 0.09 0  0.09 0.09 0  0.105 0.09 0  0.12 0.09 0  0.135 0.09 0  0.15 0.09 0  0.165 0.09 0  0.18 0.09 0  0.195 0.09 0  0.21 0.09 0  0.225 0.09 0  0.24 0.09 0  0.255 0.09 0  0.27 0.09 0  0.285 0.09 0  0.3 0.09 0  0 0.105 0  0.015 0.105 0  0.03 0.105 0  0.045 0.105 0  0.06 0.105 0  0.075 0.105 0  0.09 0.105 0  0.105 0.105 0  0.12 0.105 0  0.135 0.105 0  0.15 0.105 0  0.165 0.105 0  0.18 0.105 0  0.195 0.105 0  0.21 0.105 0  0.225 0.105 0  0.24 0.105 0  0.255 0.105 0  0.27 0.105 0  0.285 0.105 0  0.3 0.105 0  0 0.12 0  0.015 0.12 0  0.03 0.12 0  0.045 0.12 0  0.06 0.12 0  0.075 0.12 0  0.09 0.12 0  0.105 0.12 0  0.12 0.12 0  0.135 0.12 0  0.15 0.12 0  0.165 0.12 0  0.18 0.12 0  0.195 0.12 0  0.21 0.12 0  0.225 0.12 0  0.24 0.12 0  0.255 0.12 0  0.27 0.12 0  0.285 0.12 0  0.3 0.12 0  0 0.135 0  0.015 0.135 0  0.03 0.135 0  0.045 0.135 0  0.06 0.135 0  0.075 0.135 0  0.09 0.135 0  0.105 0.135 0  0.12 0.135 0  0.135 0.135 0  0.15 0.135 0  0.165 0.135 0  0.18 0.135 0  0.195 0.135 0  0.21 0.135 0  0.225 0.135 0  0.24 0.135 0  0.255 0.135 0  0.27 0.135 0  0.285 0.135 0  0.3 0.135 0  0 0.15 0  0.015 0.15 0  0.03 0.15 0  0.045 0.15 0  0.06 0.15 0  0.075 0.15 0  0.09 0.15 0  0.105 0.15 0  0.12 0.15 0  0.135 0.15 0  0.15 0.15 0  0.165 0.15 0  0.18 0.15 0  0.195 0.15 0  0.21 0.15 0  0.225 0.15 0  0.24 0.15 0  0.255 0.15 0  0.27 0.15 0  0.285 0.15 0  0.3 0.15 0  0 0.165 0  0.015 0.165 0  0.03 0.165 0  0.045 0.165 0  0.06 0.165 0  0.075 0.165 0  0.09 0.165 0  0.105 0.165 0  0.12 0.165 0  0.135 0.165 0  0.15 0.165 0  0.165 0.165 0  0.18 0.165 0  0.195 0.165 0  0.21 0.165 0  0.225 0.165 0  0.24 0.165 0  0.255 0.165 0  0.27 0.165 0  0.285 0.165 0  0.3 0.165 0  0 0.18 0  0.015 0.18 0  0.03 0.18 0  0.045 0.18 0  0.06 0.18 0  0.075 0.18 0  0.09 0.18 0  0.105 0.18 0  0.12 0.18 0  0.135 0.18 0  0.15 0.18 0  0.165 0.18 0  0.18 0.18 0  0.195 0.18 0  0.21 0.18 0  0.225 0.18 0  0.24 0.18 0  0.255 0.18 0  0.27 0.18 0  0.285 0.18 0  0.3 0.18 0  0 0.195 0  0.015 0.195 0  0.03 0.195 0  0.045 0.195 0  0.06 0.195 0  0.075 0.195 0  0.09 0.195 0  0.105 0.195 0  0.12 0.195 0  0.135 0.195 0  0.15 0.195 0  0.165 0.195 0  0.18 0.195 0  0.195 0.195 0  0.21 0.195 0  0.225 0.195 0  0.24 0.195 0  0.255 0.195 0  0.27 0.195 0  0.285 0.195 0  0.3 0.195 0  0 0.21 0  0.015 0.21 0  0.03 0.21 0  0.045 0.21 0  0.06 0.21 0  0.075 0.21 0  0.09 0.21 0  0.105 0.21 0  0.12 0.21 0  0.135 0.21 0  0.15 0.21 0  0.165 0.21 0  0.18 0.21 0  0.195 0.21 0  0.21 0.21 0  0.225 0.21 0  0.24 0.21 0  0.255 0.21 0  0.27 0.21 0  0.285 0.21 0  0.3 0.21 0  0 0.225 0  0.015 0.225 0  0.03 0.225 0  0.045 0.225 0  0.06 0.225 0  0.075 0.225 0  0.09 0.225 0  0.105 0.225 0  0.12 0.225 0  0.135 0.225 0  0.15 0.225 0  0.165 0.225 0  0.18 0.225 0  0.195 0.225 0  0.21 0.225 0  0.225 0.225 0  0.24 0.225 0  0.255 0.225 0  0.27 0.225 0  0.285 0.225 0  0.3 0.225 0  0 0.24 0  0.015 0.24 0  0.03 0.24 0  0.045 0.24 0  0.06 0.24 0  0.075 0.24 0  0.09 0.24 0  0.105 0.24 0  0.12 0.24 0  0.135 0.24 0  0.15 0.24 0  0.165 0.24 0  0.18 0.24 0  0.195 0.24 0  0.21 0.24 0  0.225 0.24 0  0.24 0.24 0  0.255 0.24 0  0.27 0.24 0  0.285 0.24 0  0.3 0.24 0  0 0.255 0  0.015 0.255 0  0.03 0.255 0  0.045 0.255 0  0.06 0.255 0  0.075 0.255 0  0.09 0.255 0  0.105 0.255 0  0.12 0.255 0  0.135 0.255 0  0.15 0.255 0  0.165 0.255 0  0.18 0.255 0  0.195 0.255 0  0.21 0.255 0  0.225 0.255 0  0.24 0.255 0  0.255 0.255 0  0.27 0.255 0  0.285 0.255 0  0.3 0.255 0  0 0.27 0  0.015 0.27 0  0.03 0.27 0  0.045 0.27 0  0.06 0.27 0  0.075 0.27 0  0.09 0.27 0  0.105 0.27 0  0.12 0.27 0  0.135 0.27 0  0.15 0.27 0  0.165 0.27 0  0.18 0.27 0  0.195 0.27 0  0.21 0.27 0  0.225 0.27 0  0.24 0.27 0  0.255 0.27 0  0.27 0.27 0  0.285 0.27 0  0.3 0.27 0  0 0.285 0  0.015 0.285 0  0.03 0.285 0  0.045 0.285 0  0.06 0.285 0  0.075 0.285 0  0.09 0.285 0  0.105 0.285 0  0.12 0.285 0  0.135 0.285 0  0.15 0.285 0  0.165 0.285 0  0.18 0.285 0  0.195 0.285 0  0.21 0.285 0  0.225 0.285 0  0.24 0.285 0  0.255 0.285 0  0.27 0.285 0  0.285 0.285 0  0.3 0.285 0  0 0.3 0  0.015 0.3 0  0.03 0.3 0  0.045 0.3 0  0.06 0.3 0  0.075 0.3 0  0.09 0.3 0  0.105 0.3 0  0.12 0.3 0  0.135 0.3 0  0.15 0.3 0  0.165 0.3 0  0.18 0.3 0  0.195 0.3 0  0.21 0.3 0  0.225 0.3 0  0.24 0.3 0  0.255 0.3 0  0.27 0.3 0  0.285 0.3 0  0.3 0.3 0  0 0 0.00075  0.015 0 0.00075  0.03 0 0.00075  0.045 0 0.00075  0.06 0 0.00075  0.075 0 0.00075  0.09 0 0.00075  0.105 0 0.00075  0.12 0 0.00075  0.135 0 0.00075  0.15 0 0.00075  0.165 0 0.00075  0.18 0 0.00075  0.195 0 0.00075  0.21 0 0.00075  0.225 0 0.00075  0.24 0 0.00075  0.255 0 0.00075  0.27 0 0.00075  0.285 0 0.00075  0.3 0 0.00075  0 0.015 0.00075  0.015 0.015 0.00075  0.03 0.015 0.00075  0.045 0.015 0.00075  0.06 0.015 0.00075  0.075 0.015 0.00075  0.09 0.015 0.00075  0.105 0.015 0.00075  0.12 0.015 0.00075  0.135 0.015 0.00075  0.15 0.015 0.00075  0.165 0.015 0.00075  0.18 0.015 0.00075  0.195 0.015 0.00075  0.21 0.015 0.00075  0.225 0.015 0.00075  0.24 0.015 0.00075  0.255 0.015 0.00075  0.27 0.015 0.00075  0.285 0.015 0.00075  0.3 0.015 0.00075  0 0.03 0.00075  0.015 0.03 0.00075  0.03 0.03 0.00075  0.045 0.03 0.00075  0.06 0.03 0.00075  0.075 0.03 0.00075  0.09 0.03 0.00075  0.105 0.03 0.00075  0.12 0.03 0.00075  0.135 0.03 0.00075  0.15 0.03 0.00075  0.165 0.03 0.00075  0.18 0.03 0.00075  0.195 0.03 0.00075  0.21 0.03 0.00075  0.225 0.03 0.00075  0.24 0.03 0.00075  0.255 0.03 0.00075  0.27 0.03 0.00075  0.285 0.03 0.00075  0.3 0.03 0.00075  0 0.045 0.00075  0.015 0.045 0.00075  0.03 0.045 0.00075  0.045 0.045 0.00075  0.06 0.045 0.00075  0.075 0.045 0.00075  0.09 0.045 0.00075  0.105 0.045 0.00075  0.12 0.045 0.00075  0.135 0.045 0.00075  0.15 0.045 0.00075  0.165 0.045 0.00075  0.18 0.045 0.00075  0.195 0.045 0.00075  0.21 0.045 0.00075  0.225 0.045 0.00075  0.24 0.045 0.00075  0.255 0.045 0.00075  0.27 0.045 0.00075  0.285 0.045 0.00075  0.3 0.045 0.00075  0 0.06 0.00075  0.015 0.06 0.00075  0.03 0.06 0.00075  0.045 0.06 0.00075  0.06 0.06 0.00075  0.075 0.06 0.00075  0.09 0.06 0.00075  0.105 0.06 0.00075  0.12 0.06 0.00075  0.135 0.06 0.00075  0.15 0.06 0.00075  0.165 0.06 0.00075  0.18 0.06 0.00075  0.195 0.06 0.00075  0.21 0.06 0.00075  0.225 0.06 0.00075  0.24 0.06 0.00075  0.255 0.06 0.00075  0.27 0.06 0.00075  0.285 0.06 0.00075  0.3 0.06 0.00075  0 0.075 0.00075  0.015 0.075 0.00075  0.03 0.075 0.00075  0.045 0.075 0.00075  0.06 0.075 0.00075  0.075 0.075 0.00075  0.09 0.075 0.00075  0.105 0.075 0.00075  0.12 0.075 0.00075  0.135 0.075 0.00075  0.15 0.075 0.00075  0.165 0.075 0.00075  0.18 0.075 0.00075  0.195 0.075 0.00075  0.21 0.075 0.00075  0.225 0.075 0.00075  0.24 0.075 0.00075  0.255 0.075 0.00075  0.27 0.075 0.00075  0.285 0.075 0.00075  0.3 0.075 0.00075  0 0.09 0.00075  0.015 0.09 0.00075  0.03 0.09 0.00075  0.045 0.09 0.00075  0.06 0.09 0.00075  0.075 0.09 0.00075  0.09 0.09 0.00075  0.105 0.09 0.00075  0.12 0.09 0.00075  0.135 0.09 0.00075  0.15 0.09 0.00075  0.165 0.09 0.00075  0.18 0.09 0.00075  0.195 0.09 0.00075  0.21 0.09 0.00075  0.225 0.09 0.00075  0.24 0.09 0.00075  0.255 0.09 0.00075  0.27 0.09 0.00075  0.285 0.09 0.00075  0.3 0.09 0.00075  0 0.105 0.00075  0.015 0.105 0.00075  0.03 0.105 0.00075  0.045 0.105 0.00075  0.06 0.105 0.00075  0.075 0.105 0.00075  0.09 0.105 0.00075  0.105 0.105 0.00075  0.12 0.105 0.00075  0.135 0.105 0.00075  0.15 0.105 0.00075  0.165 0.105 0.00075  0.18 0.105 0.00075  0.195 0.105 0.00075  0.21 0.105 0.00075  0.225 0.105 0.00075  0.24 0.105 0.00075  0.255 0.105 0.00075  0.27 0.105 0.00075  0.285 0.105 0.00075  0.3 0.105 0.00075  0 0.12 0.00075  0.015 0.12 0.00075  0.03 0.12 0.00075  0.045 0.12 0.00075  0.06 0.12 0.00075  0.075 0.12 0.00075  0.09 0.12 0.00075  0.105 0.12 0.00075  0.12 0.12 0.00075  0.135 0.12 0.00075  0.15 0.12 0.00075  0.165 0.12 0.00075  0.18 0.12 0.00075  0.195 0.12 0.00075  0.21 0.12 0.00075  0.225 0.12 0.00075  0.24 0.12 0.00075  0.255 0.12 0.00075  0.27 0.12 0.00075  0.285 0.12 0.00075  0.3 0.12 0.00075  0 0.135 0.00075  0.015 0.135 0.00075  0.03 0.135 0.00075  0.045 0.135 0.00075  0.06 0.135 0.00075  0.075 0.135 0.00075  0.09 0.1
[...]
<PointData  Vectors="f_205"> 
<DataArray  type="Float64"  Name="f_205"  NumberOfComponents="3" format="ascii">-2.4206896159366867e+01 -4.7531864349291702e+01 -1.8306747153452623e+00  -2.0118601110356700e+01 -4.6171111665476495e+01 -1.8610622154560565e+00  -1.6037086049862872e+01 -4.4766921293922266e+01 -1.8669854019499337e+00  -1.2008255045267896e+01 -4.3272244542809567e+01 -1.8542064160812795e+00  -8.0782327214692682e+00 -4.1669701151194019e+01 -1.8279760415535831e+00  -4.2839042194741692e+00 -3.9958851780702602e+01 -1.7922949501266228e+00  -6.5117459935000477e-01 -3.8145618005560834e+01 -1.7495536459241172e+00  2.8019191443360651e+00 -3.6235740220586557e+01 -1.7004906426457591e+00  6.0604357697085094e+00 -3.4232542054205112e+01 -1.6445204456308056e+00  9.1084929772268914e+00 -3.2138172123144251e+01 -1.5803437025726599e+00  1.1927412280485488e+01 -2.9956822855900089e+01 -1.5066706286739784e+00  1.4496470015218419e+01 -2.7698201309911237e+01 -1.4228377292196637e+00  1.6795710271807206e+01 -2.5379828022068409e+01 -1.3291379055959305e+00  1.8809710644683957e+01 -2.3027513756831031e+01 -1.2268530408842471e+00  2.0531336590852330e+01 -2.0674187477231946e+01 -1.1181814314828993e+00  2.1965208080508305e+01 -1.8357508948065519e+01 -1.0063166744061047e+00  2.3131133739195771e+01 -1.6116126298397841e+01 -8.9577547890242681e-01  2.4067397982783490e+01 -1.3983491764763130e+01 -7.9280398900764582e-01  2.4832382313715485e+01 -1.1977790650950451e+01 -7.0555018939186609e-01  2.5501548629298128e+01 -1.0087790991026980e+01 -6.4358924998670874e-01  2.6155650601777623e+01 -8.2618209584444653e+00 -6.1657528573236320e-01  -2.5587578407545738e+01 -4.3456173824727813e+01 -1.8049120680739306e+00  -2.1521556786397177e+01 -4.2140405493914415e+01 -1.8417668865137597e+00  -1.7486166470131050e+01 -4.0823088389478578e+01 -1.8519602249959604e+00  -1.3524614847417977e+01 -3.9447539176977997e+01 -1.8406828911767934e+00  -9.6739630468335580e+00 -3.7987234776936276e+01 -1.8138540736281432e+00  -5.9635368444140475e+00 -3.6434168515997762e+01 -1.7762511272307564e+00  -2.4149275969542345e+00 -3.4789371353770761e+01 -1.7309218420755506e+00  9.5574527968940637e-01 -3.3056636072977824e+01 -1.6790355427192938e+00  4.1347057673391125e+00 -3.1239729815441162e+01 -1.6201948112847391e+00  7.1079308784305644e+00 -2.9342493395481107e+01 -1.5530911197620045e+00  9.8600220467688100e+00 -2.7370688301304519e+01 -1.4763081641563995e+00  1.2374832608207921e+01 -2.5334292459695853e+01 -1.3890342205867892e+00  1.4637499049016611e+01 -2.3249150901968104e+01 -1.2914820514717329e+00  1.6637113914029580e+01 -2.1137371721884229e+01 -1.1849804015884304e+00  1.8369344867689527e+01 -1.9026360423328327e+01 -1.0719179488767623e+00  1.9838770006791361e+01 -1.6946562782348433e+01 -9.5580946960461211e-01  2.1061109258847836e+01 -1.4927690402784673e+01 -8.4160123368950612e-01  2.2065399615362661e+01 -1.2992719682476062e+01 -7.3602823233658432e-01  2.2895470968786245e+01 -1.1148827744455916e+01 -6.4761711057494364e-01  2.3609864942710455e+01 -9.3751909585457174e+00 -5.8571834984776117e-01  2.4281907566331089e+01 -7.6083068123175144e+00 -5.5511513850689043e-01  -2.6936689858960378e+01 -3.9344868406067306e+01 -1.7777840929328232e+00  -2.2889578166034173e+01 -3.8100773409306569e+01 -1.8184027730836703e+00  -1.8877098260901793e+01 -3.6876352651906345e+01 -1.8326638838984675e+00  -1.4950243079791633e+01 -3.5619351121695736e+01 -1.8227182941907702e+00  -1.1145437387446245e+01 -3.4299534625601233e+01 -1.7949264279104746e+00  -7.4888439223706538e+00 -3.2903525758290982e+01 -1.7548020165309437e+00  -3.9987204822270987e+00 -3.1427977738492725e+01 -1.7060491689334254e+00  -6.8834254558711128e-01 -2.9874430201680269e+01 -1.6503180638065398e+00  2.4310040555909813e+00 -2.8246491984928426e+01 -1.5875118892529805e+00  5.3478052211607778e+00 -2.6549112951334099e+01 -1.5164738886394034e+00  8.0494230324173159e+00 -2.4789230472919513e+01 -1.4358288204481813e+00  1.0522635733231631e+01 -2.2976929530249791e+01 -1.3447377656117061e+00  1.2755269502950686e+01 -2.1126360557405050e+01 -1.2433726348134964e+00  1.4738293278245813e+01 -1.9255909292236272e+01 -1.1330731252125263e+00  1.6467845652688453e+01 -1.7387358004555207e+01 -1.0163538286340783e+00  1.7947104944417998e+01 -1.5543871596030860e+01 -8.9701612294847988e-01  1.9188321357294463e+01 -1.3746542423758928e+01 -7.8046849768169435e-01  2.0215278592066500e+01 -1.2009123750144925e+01 -6.7405051154374174e-01  2.1065902930708347e+01 -1.0330686792515980e+01 -5.8692042052926496e-01  2.1794810202694993e+01 -8.6866522960892336e+00 -5.2877208982862445e-01  2.2478822709958138e+01 -7.0184750165702798e+00 -5.0221646515244944e-01  -2.8195303678723786e+01 -3.5191593135243075e+01 -1.7525856439108995e+00  -2.4165419763258509e+01 -3.4049674103564868e+01 -1.7955198147889353e+00  -2.0167157417677025e+01 -3.2933975776805781e+01 -1.8123466303083722e+00  -1.6258667379045143e+01 -3.1801438902998509e+01 -1.8033264122900727e+00  -1.2479539660846042e+01 -3.0623567562009715e+01 -1.7745704792527488e+00  -8.8560100683981915e+00 -2.9384958176600087e+01 -1.7319298710397630e+00  -5.4048837946949204e+00 -2.8079546498825405e+01 -1.6795844973239802e+00  -2.1373583002662642e+00 -2.6707013795351465e+01 -1.6196603480967746e+00  9.3757808937447795e-01 -2.5270379869890213e+01 -1.5524841490557499e+00  3.8107942147679781e+00 -2.3774887307604871e+01 -1.4772399731613073e+00  6.4720356524671647e+00 -2.2227837125330375e+01 -1.3927779593882301e+00  8.9102794598021102e+00 -2.0638885342154691e+01 -1.2983471193559726e+00  1.1115056925946035e+01 -1.9020334261913884e+01 -1.1940875837506737e+00  1.3078203314933051e+01 -1.7387043745838096e+01 -1.0812560591983467e+00  1.4795635868889169e+01 -1.5755665740749812e+01 -9.6232903390911428e-01  1.6269187946974153e+01 -1.4142942642030727e+01 -8.4119545011460028e-01  1.7508897421995833e+01 -1.2562816979960346e+01 -7.2350572424718884e-01  1.8536077672380106e+01 -1.1022236008521880e+01 -6.1696247991561137e-01  1.9386892645694342e+01 -9.5157177621289772e+00 -5.3111231228070876e-01  2.0116254001139296e+01 -8.0196521083875982e+00 -4.7585867724514419e-01  2.0804780829169307e+01 -6.4871322385408359e+00 -4.5247249520539307e-01  -2.9326712556953634e+01 -3.1001884884505962e+01 -1.7311281881178120e+00  -2.5312053011444473e+01 -2.9987360745784713e+01 -1.7752753269762898e+00  -2.1324333403116057e+01 -2.8997637408750393e+01 -1.7933521661571632e+00  -1.7426685939161299e+01 -2.7999311499669357e+01 -1.7844890617248190e+00  -1.3662273643313986e+01 -2.6968132835733410e+01 -1.7545009330675465e+00  -1.0058977518982543e+01 -2.5889314261756976e+01 -1.7093099318097691e+00  -6.6336572092145056e+00 -2.4755810817709811e+01 -1.6533815219778778e+00  -3.3965324212851637e+00 -2.3566145022907861e+01 -1.5892366041056936e+00  -3.5501512460814150e-01 -2.2322605454029208e+01 -1.5176393645892916e+00  2.4836558200797829e+00 -2.1030091349982271e+01 -1.4381900881745546e+00  5.1112105422602081e+00 -1.9695523374723841e+01 -1.3500600687246518e+00  7.5184464979205199e+00 -1.8327599927698998e+01 -1.2526619662637413e+00  9.6962526923581951e+00 -1.6936652299204638e+01 -1.1461293509461363e+00  1.1637102066935029e+01 -1.5534351562468702e+01 -1.0315985892606483e+00  1.3336730972422373e+01 -1.4133005067299386e+01 -9.1141494762782449e-01  1.4796117474071805e+01 -1.2744186050296776e+01 -7.8942201977264137e-01  1.6024158679217098e+01 -1.1376478862705927e+01 -6.7134902986906109e-01  1.7041320409199770e+01 -1.0032409539232409e+01 -5.6507009398403574e-01  1.7883795335857663e+01 -8.7046782681303405e+00 -4.8029889685511051e-01  1.8607902715220028e+01 -7.3731883434330507e+00 -4.2695855808455208e-01  1.9296803151999818e+01 -6.0034203139716613e+00 -4.0544901105512954e-01  -3.0307943804436238e+01 -2.6784432230681119e+01 -1.7143730299977480e+00  -2.6306340557624498e+01 -2.5916179376838880e+01 -1.7589077609177113e+00  -2.2327295198139662e+01 -2.5067779260968916e+01 -1.7772568397034925e+00  -1.8437124638313296e+01 -2.4214310236758671e+01 -1.7678452321737061e+00  -1.4681958769335530e+01 -2.3336422652832589e+01 -1.7362850333992870e+00  -1.1091689942308916e+01 -2.2421369572381941e+01 -1.6884918094983947e+00  -7.6840377439256224e+00 -2.1462395643197556e+01 -1.6290945564713415e+00  -4.4690876895616620e+00 -2.0457543408160259e+01 -1.5609123497864341e+00  -1.4533887913611054e+00 -1.9408425656680652e+01 -1.4850924014105884e+00  1.3571618907743499e+00 -1.8319224993859496e+01 -1.4016359187205671e+00  3.9558740118509212e+00 -1.7195970102340123e+01 -1.3100490015071447e+00  6.3350917118462222e+00 -1.6046032873678612e+01 -1.2099366667274600e+00  8.4869301945944020e+00 -1.4877745126333881e+01 -1.1014525613553166e+00  1.0404546437770831e+01 -1.3699990992521881e+01 -9.8561974182981760e-01  1.2083762255569079e+01 -1.2521577784208878e+01 -8.6462755567375515e-01  1.3525212263825438e+01 -1.1350185894303376e+01 -7.4221596484808350e-01  1.4737379600891073e+01 -1.0190701251728903e+01 -6.2410133098426901e-01  1.5740708176294886e+01 -9.0431681567217925e+00 -5.1820319132845916e-01  1.6571992281029090e+01 -7.9001855993620040e+00 -4.3422909029670764e-01  1.7288883592912018e+01 -6.7461427852164206e+00 -3.8199688961545120e-01  1.7975795088828775e+01 -5.5572239854237582e+00 -3.6131346147550947e-01  -3.1124647303729123e+01 -2.2547491416758707e+01 -1.7028276487748968e+00  -2.7133971234675933e+01 -2.1839047281410608e+01 -1.7471650169081048e+00  -2.3162407040708342e+01 -2.1144450184602480e+01 -1.7651139293204436e+00  -1.9278263917276114e+01 -2.0445666643401278e+01 -1.7546382514674683e+00  -1.5529894413024257e+01 -1.9728022580470096e+01 -1.7212424471683907e+00  -1.1949015935964113e+01 -1.8981362169833975e+01 -1.6708398437863750e+00  -8.5544494702541769e+00 -1.8199945676171232e+01 -1.6081666570257536e+00  -5.3565996656994814e+00 -1.7381835498181523e+01 -1.5362599650074076e+00  -2.3616502077289558e+00 -1.6528105654792370e+01 -1.4565702854476392e+00  4.2539158155784818e-01 -1.5642064809271549e+01 -1.3694343025643203e+00  2.9990510389863165e+00 -1.4728576647817507e+01 -1.2746518301734204e+00  5.3529725879520713e+00 -1.3793500271186389e+01 -1.1720090805193260e+00  7.4803993224974610e+00 -1.2843231014979215e+01 -1.0616947596230972e+00  9.3752500797994625e+00 -1.1884268038383688e+01 -9.4464490067030138e-01  1.1033691245566496e+01 -1.0922674542475882e+01 -8.2290890762215430e-01  1.2456407137270483e+01 -9.9633246412505692e+00 -7.0011947467764213e-01  1.3651868807988027e+01 -9.0087367810393779e+00 -5.8195693210602994e-01  1.4640841089924605e+01 -8.0579255205832983e+00 -4.7634353186358735e-01  1.5460692162930783e+01 -7.1042360729177174e+00 -3.9283303333739555e-01  1.6169991384029643e+01 -6.1367453735884059e+00 -3.4107914953196689e-01  1.6853499384044493e+01 -5.1400839384006627e+00 -3.2047171866825769e-01  -3.1767669360825170e+01 -1.8297760536062441e+01 -1.6967121932672313e+00  -2.7785996936487717e+01 -1.7758666526809279e+01 -1.7404564149093296e+00  -2.3821025391819816e+01 -1.7227460710496686e+01 -1.7575671151499292e+00  -1.9942354719816223e+01 -1.6691570641326578e+01 -1.7456962149799038e+00  -1.6199926261086350e+01 -1.6140468034366936e+01 -1.7103132046094247e+00  -1.2626907205090429e+01 -1.5566660919066333e+01 -1.6573568378010393e+00  -9.2431354706608300e+00 -1.4965751288167009e+01 -1.5916513789759346e+00  -6.0594715863586082e+00 -1.4336123964622706e+01 -1.5163960890589634e+00  -3.0819943579098519e+00 -1.3678456437317566e+01 -1.4332681961569602e+00  -3.1512579520316880e-01 -1.2995165450247757e+01 -1.3428596605638061e+00  2.2365849332330754e+00 -1.2289861626160638e+01 -1.2451977923404518e+00  4.5678560947912796e+00 -1.1566856578032324e+01 -1.1402116045832265e+00  6.6729414597043553e+00 -1.0830738023716956e+01 -1.0281177978279512e+00  8.5465444985672718e+00 -1.0085981147813200e+01 -9.0978070800331468e-01  1.0185332410250137e+01 -9.3365183779607914e+00 -7.8713138725812681e-01  1.1590335735410212e+01 -8.5851874270798501e+00 -6.6370291778190338e-01  1.2770163539639613e+01 -7.8330400426146909e+00 -5.4515939392320745e-01  1.3745940185701830e+01 -7.0791257304737076e+00 -4.3955601836956432e-01  1.4555234612935349e+01 -6.3177053821539735e+00 -3.5613451516221523e-01  1.5257181780284846e+01 -5.5426780392143122e+00 -3.0437272858242342e-01  1.5936398174923657e+01 -4.7450265779193286e+00 -2.8333320336481888e-01  -3.2230833940907516e+01 -1.4040455430827317e+01 -1.6960385555478408e+00  -2.8256583607404497e+01 -1.3677361637974396e+01 -1.7389232074949594e+00  -2.4297549960198797e+01 -1.3316546349563259e+01 -1.7549106127871938e+00  -2.0424250549560369e+01 -1.2949870145669740e+01 -1.7414420300123010e+00  -1.6687736136558399e+01 -1.2570422037938744e+01 -1.7040019442705248e+00  -1.3122224507492529e+01 -1.2173241492091716e+01 -1.6485825942631163e+00  -9.7483381309990129e+00 -1.1755359175850755e+01 -1.5800941130441328e+00  -6.5773360476097853e+00 -1.1315626509190995e+01 -1.5018641319369375e+00  -3.6152738296608522e+00 -1.0854428691130488e+01 -1.4157388255381196e+00  -8.6615928160144806e-01 -1.0373334259255723e+01 -1.3224978450816949e+00  1.6661746126994257e+00 -9.8747228095779924e+00 -1.2223356710385336e+00  3.9773248844311579e+00 -9.3614279666286144e+00 -1.1152843154386973e+00  6.0624241565845045e+00 -8.8364171057694350e+00 -1.0015698153184416e+00  7.9169182620979068e+00 -8.3024931519893190e+00 -8.8197172597584017e-01  9.5380198043719577e+00 -7.7619695542327634e+00 -7.5827893378134525e-01  1.0927240109920213e+01 -7.2162259480455990e+00 -6.3390567614706150e-01  1.2093617675945595e+01 -6.6651188126997027e+00 -5.1430118031197880e-01  1.3058497178866725e+01 -6.1081517710230910e+00 -4.0813889575933676e-01  1.3858523373716025e+01 -5.5404025932565242e+00 -3.2424714333555849e-01  1.4553484563334646e+01 -4.9612652896636531e+00 -2.7206420969795869e-01  1.5227805820284523e+01 -4.3661614295923394e+00 -2.5024014222150925e-01  -3.2509736921474385e+01 -9.7798926696350250e+00 -1.7006888655133849e+00  -2.8541732517428002e+01 -9.5972737098066450e+00 -1.7425175938714370e+00  -2.4588224455637299e+01 -9.4116234363175497e+00 -1.7571738249650635e+00  -2.0720460906901668e+01 -9.2186256252859380e+00 -1.7419660428504484e+00  -1.6990255083826867e+01 -9.0145969383322750e+00 -1.7024242086551189e+00  -1.3432515690159914e+01 -8.7969295510620178e+00 -1.6446135024544690e+00  -1.0068373375712618e+01 -8.5640454550545755e+00 -1.5735318856731308e+00  -6.9093351287865836e+00 -8.3152893674014869e+00 -1.4926155027824897e+00  -3.9614098219018774e+00 -8.0507909696264104e+00 -1.4038412913116585e+00  -1.2282716294052718e+00 -7.7712979997495619e+00 -1.3081312254006578e+00  1.2868154188219785e+00 -7.4779892316457062e+00 -1.2058106379754294e+00  3.5801606012193052e+00 -7.1722882701026887e+00 -1.0970027376167577e+00  5.6476404499616644e+00 -6.8556980334939635e+00 -9.8196110434975226e-01  7.4853780656450590e+00 -6.5296550059944547e+00 -8.6141218023065957e-01  9.0911513706036207e+00 -6.1953739794702933e+00 -7.3699437685765323e-01  1.0466839969625978e+01 -5.8536114178796774e+00 -6.1185898419130014e-01  1.1621357863895769e+01 -5.5044761627065162e+00 -4.9124160252616339e-01  1.2579633252193346e+01 -5.1443998614224835e+00 -3.8354935685081326e-01  1.3371940340333410e+01 -4.7709686181395439e+00 -2.9762862739444979e-01  1.4059901838504659e+01 -4.3896184558653903e+00 -2.4443850255214170e-01  1.4728824715986356e+01 -3.9983621618885348e+00 -2.2151568052185300e-01  -3.2601348855279404e+01 -5.5200626302647091e+00 -1.7105270517237763e+00  -2.8638750294672242e+01 -5.5205895726213923e+00 -1.7511281222308255e+00  -2.4690564133506165e+01 -5.5129627330237438e+00 -1.7642711859682148e+00  -2.0828660208334949e+01 -5.4964202136183182e+00 -1.7471956087409994e+00  -1.7105351710432309e+01 -5.4703000511681976e+00 -1.7054918020467227e+00  -1.3555926033351925e+01 -5.4342048584176927e+00 -1.6453056361856229e+00  -1.0201748096018493e+01 -5.3878594853544710e+00 -1.5717203909270729e+00  -7.0543894054912775e+00 -5.3310495605632724e+00 -1.4882635716049706e+00  -4.1197367541717806e+00 -5.2636164879630680e+00 -1.3970117327589791e+00  -1.4011564572637896e+00 -5.1854632780108609e+00 -1.2989908832476926e+00  1.0985514438716006e+00 -5.0965479364169575e+00 -1.1946239357399138e+00  3.3762533372335453e+00 -4.9968671225685375e+00 -1.0841121964203833e+00  5.4283915015237794e+00 -4.8864451317916258e+00 -9.6776053934471828e-01  7.2515885997368548e+00 -4.7653372171741708e+00 -8.4632364624141121e-01  8.8440565223975938e+00 -4.6336426085879499e+00 -7.2145748996675352e-01  1.0208118173860646e+01 -4.4915157407175261e+00 -5.9631168519176758e-01  1.1354051570310379e+01 -4.3391906568956848e+00 -4.7608475086354868e-01  1.2306721383760205e+01 -4.1774108026803480e+00 -3.6950136043180060e-01  1.3095044616186026e+01 -4.0057765186017527e+00 -2.7724112224911851e-01  1.3775109106467163e+01 -3.8247427623554198e+00 -2.2196275477229563e-01  1.4438236592676407e+01 -3.6373246327108428e+00 -1.9757050121788516e-01  -3.2504058504308894e+01 -1.2648765141370468e+00 -1.7255061954077611e+00  -2.8546162723521821e+01 -1.4495649887810913e+00 -1.7647112992439116e+00  -2.4603192640908969e+01 -1.6210871988281728e+00 -1.7761673935702356e+00  -2.0747536298550131e+01 -1.7822480619280376e+00 -1.7570969123306135e+00  -1.7031771600054828e+01 -1.9353883757822548e+00 -1.7131572398750334e+00  -1.3491280313148046e+01 -2.0822468080305376e+00 -1.6505741156463101e+00  -1.0147404517148466e+01 -2.2237473184685954e+00 -1.5745086300818871e+00  -7.0115966055721355e+00 -2.3600133902888483e+00 -1.4885622818139239e+00  -4.0895261314878733e+00 -2.4905160118748095e+00 -1.3948827919349667e+00  -1.3842361376081116e+00 -2.6142606635955099e+00 -1.2945625738004214e+00  1.1018975727295777e+00 -2.7299609618104350e+00 -1.1880791083993676e+00  3.3662362828355992e+00 -2.8361891774731900e+00 -1.0756656212300899e+00  5.4057325412657562e+00 -2.9315195976989123e+00 -9.5762474079905946e-01  7.2174638016851400e+00 -3.0146858140203210e+00 -8.3466410694509319e-01  8.7999549698989945e+00 -3.0847657277835130e+00 -7.0833709518591181e-01  1.0155532953608724e+01 -3.1413912585693997e+00 -5.8161061079492471e-01  1.1293867076807716e+01 -3.1850597794271360e+00 -4.5948096167930963e-01  1.2236023782490552e+01 -3.2172324229114340e+00 -3.4933602566258121e-01  1.3017794732959615e+01 -3.2444589008734450e+00 -2.6037569551578094e-01  1.3692989892013642e+01 -3.2646987503066254e+00 -2.0451844464815436e-01  1.4351563130187616e+01 -3.2805837059865666e+00 -1.7863755563249534e-01  -3.2217733221954020e+01 2.9818820665262722e+00 -1.7457056031887925e+00  -2.8263737031217637e+01 2.6136571760014333e+00 -1.7833471423040173e+00  -2.4325828361028876e+01 2.2635748318126887e+00 -1.7929513813883791e+00  -2.0476772678710141e+01 1.9249422274071255e+00 -1.7717693189907131e+00  -1.6769152762814212e+01 1.5922556908092869e+00 -1.7255315368539415e+00  -1.3238165619900768e+01 1.2616603206187558e+00 -1.6605405251177174e+00  -9.9049004592429437e+00 9.3116343902106591e-01 -1.5820274702016373e+00  -6.7805424528134690e+00 6.0046844411478106e-01 -1.4936553226938192e+00  -3.8704818122082854e+00 2.7062032476417036e-01 -1.3976256784905778e+00  -1.1774486256052954e+00 -5.6387200755520638e-02 -1.2950776319179673e+00  1.2965439069402120e+00 -3.7796686467598117e-01 -1.1865259491876063e+00  3.5492581550961697e+00 -6.9124328431267357e-01 -1.0722277548273629e+00  5.5780379628253813e+00 -9.9333613830951351e-01 -9.5249339861268989e-01  7.3802580979171504e+00 -1.2816617284902410e+00 -8.2802488432007748e-01  8.9545360110013057e+00 -1.5542859672340255e+00 -7.0037047428798005e-01  1.0302980533735502e+01 -1.8103413614175181e+00 -5.7252234281758341e-01  1.1434672708674741e+01 -2.0504959663716020e+00 -4.4954939479357664e-01  1.2370165955799656e+01 -2.2774082833137590e+00 -3.3896928000701959e-01  1.3145968438150481e+01 -2.4967408450634343e+00 -2.5028682902321175e-01  1.3819028749184618e+01 -2.7101593030887865e+00 -1.9330654521898050e-01  1.4473046055270789e+01 -2.9266720543925708e+00 -1.6555621538826201e-01  -3.1743610817421295e+01 7.2165925089483096e+00 -1.7712805564564096e+00  -2.7792447309349448e+01 6.6672240746524709e+00 -1.8071