<?xml version="1.0"?>
<VTKFile type="UnstructuredGrid"  version="0.1"  >
<UnstructuredGrid>
<Piece  NumberOfPoints="9261" NumberOfCells="48000">
<Points>
<DataArray  type="Float64"  NumberOfComponents="3"  format="ascii">0 0 0  0.015 0 0  0.03 0 0  0.045 0 0  0.06 0 0  0.075 0 0  0.09 0 0  0.105 0 0  0.12 0 0  0.135 0 0  0.15 0 0  0.165 0 0  0.18 0 0  0.195 0 0  0.21 0 0  0.225 0 0  0.24 0 0  0.255 0 0  0.27 0 0  0.285 0 0  0.3 0 0  0 0.015 0  0.015 0.015 0  0.03 0.015 0  0.045 0.015 0  0.06 0.015 0  0.075 0.015 0  0.09 0.015 0  0.105 0.015 0  0.12 0.015 0  0.135 0.015 0  0.15 0.015 0  0.165 0.015 0  0.18 0.015 0  0.195 0.015 0  0.21 0.015 0  0.225 0.015 0  0.24 0.015 0  0.255 0.015 0  0.27 0.015 0  0.285 0.015 0  0.3 0.015 0  0 0.03 0  0.015 0.03 0  0.03 0.03 0  0.045 0.03 0  0.06 0.03 0  0.075 0.03 0  0.09 0.03 0  0.105 0.03 0  0.12 0.03 0  0.135 0.03 0  0.15 0.03 0  0.165 0.03 0  0.18 0.03 0  0.195 0.03 0  0.21 0.03 0  0.225 0.03 0  0.24 0.03 0  0.255 0.03 0  0.27 0.03 0  0.285 0.03 0  0.3 0.03 0  0 0.045 0  0.015 0.045 0  0.03 0.045 0  0.045 0.045 0  0.06 0.045 0  0.075 0.045 0  0.09 0.045 0  0.105 0.045 0  0.12 0.045 0  0.135 0.045 0  0.15 0.045 0  0.165 0.045 0  0.18 0.045 0  0.195 0.045 0  0.21 0.045 0  0.225 0.045 0  0.24 0.045 0  0.255 0.045 0  0.27 0.045 0  0.285 0.045 0  0.3 0.045 0  0 0.06 0  0.015 0.06 0  0.03 0.06 0  0.045 0.06 0  0.06 0.06 0  0.075 0.06 0  0.09 0.06 0  0.105 0.06 0  0.12 0.06 0  0.135 0.06 0  0.15 0.06 0  0.165 0.06 0  0.18 0.06 0  0.195 0.06 0  0.21 0.06 0  0.225 0.06 0  0.24 0.06 0  0.255 0.06 0  0.27 0.06 0  0.285 0.06 0  0.3 0.06 0  0 0.075 0  0.015 0.075 0  0.03 0.075 0  0.045 0.075 0  0.06 0.075 0  0.075 0.075 0  0.09 0.075 0  0.105 0.075 0  0.12 0.075 0  0.135 0.075 0  0.15 0.075 0  0.165 0.075 0  0.18 0.075 0  0.195 0.075 0  0.21 0.075 0  0.225 0.075 0  0.24 0.075 0  0.255 0.075 0  0.27 0.075 0  0.285 0.075 0  0.3 0.075 0  0 0.09 0  0.015 0.09 0  0.03 0.09 0  0.045 0.09 0  0.06 0.09 0  0.075 0.09 0  0.09 0.09 0  0.105 0.09 0  0.12 0.09 0  0.135 0.09 0  0.15 0.09 0  0.165 0.09 0  0.18 0.09 0  0.195 0.09 0  0.21 0.09 0  0.225 0.09 0  0.24 0.09 0  0.255 0.09 0  0.27 0.09 0  0.285 0.09 0  0.3 0.09 0  0 0.105 0  0.015 0.105 0  0.03 0.105 0  0.045 0.105 0  0.06 0.105 0  0.075 0.105 0  0.09 0.105 0  0.105 0.105 0  0.12 0.105 0  0.135 0.105 0  0.15 0.105 0  0.165 0.105 0  0.18 0.105 0  0.195 0.105 0  0.21 0.105 0  0.225 0.105 0  0.24 0.105 0  0.255 0.105 0  0.27 0.105 0  0.285 0.105 0  0.3 0.105 0  0 0.12 0  0.015 0.12 0  0.03 0.12 0  0.045 0.12 0  0.06 0.12 0  0.075 0.12 0  0.09 0.12 0  0.105 0.12 0  0.12 0.12 0  0.135 0.12 0  0.15 0.12 0  0.165 0.12 0  0.18 0.12 0  0.195 0.12 0  0.21 0.12 0  0.225 0.12 0  0.24 0.12 0  0.255 0.12 0  0.27 0.12 0  0.285 0.12 0  0.3 0.12 0  0 0.135 0  0.015 0.135 0  0.03 0.135 0  0.045 0.135 0  0.06 0.135 0  0.075 0.135 0  0.09 0.135 0  0.105 0.135 0  0.12 0.135 0  0.135 0.135 0  0.15 0.135 0  0.165 0.135 0  0.18 0.135 0  0.195 0.135 0  0.21 0.135 0  0.225 0.135 0  0.24 0.135 0  0.255 0.135 0  0.27 0.135 0  0.285 0.135 0  0.3 0.135 0  0 0.15 0  0.015 0.15 0  0.03 0.15 0  0.045 0.15 0  0.06 0.15 0  0.075 0.15 0  0.09 0.15 0  0.105 0.15 0  0.12 0.15 0  0.135 0.15 0  0.15 0.15 0  0.165 0.15 0  0.18 0.15 0  0.195 0.15 0  0.21 0.15 0  0.225 0.15 0  0.24 0.15 0  0.255 0.15 0  0.27 0.15 0  0.285 0.15 0  0.3 0.15 0  0 0.165 0  0.015 0.165 0  0.03 0.165 0  0.045 0.165 0  0.06 0.165 0  0.075 0.165 0  0.09 0.165 0  0.105 0.165 0  0.12 0.165 0  0.135 0.165 0  0.15 0.165 0  0.165 0.165 0  0.18 0.165 0  0.195 0.165 0  0.21 0.165 0  0.225 0.165 0  0.24 0.165 0  0.255 0.165 0  0.27 0.165 0  0.285 0.165 0  0.3 0.165 0  0 0.18 0  0.015 0.18 0  0.03 0.18 0  0.045 0.18 0  0.06 0.18 0  0.075 0.18 0  0.09 0.18 0  0.105 0.18 0  0.12 0.18 0  0.135 0.18 0  0.15 0.18 0  0.165 0.18 0  0.18 0.18 0  0.195 0.18 0  0.21 0.18 0  0.225 0.18 0  0.24 0.18 0  0.255 0.18 0  0.27 0.18 0  0.285 0.18 0  0.3 0.18 0  0 0.195 0  0.015 0.195 0  0.03 0.195 0  0.045 0.195 0  0.06 0.195 0  0.075 0.195 0  0.09 0.195 0  0.105 0.195 0  0.12 0.195 0  0.135 0.195 0  0.15 0.195 0  0.165 0.195 0  0.18 0.195 0  0.195 0.195 0  0.21 0.195 0  0.225 0.195 0  0.24 0.195 0  0.255 0.195 0  0.27 0.195 0  0.285 0.195 0  0.3 0.195 0  0 0.21 0  0.015 0.21 0  0.03 0.21 0  0.045 0.21 0  0.06 0.21 0  0.075 0.21 0  0.09 0.21 0  0.105 0.21 0  0.12 0.21 0  0.135 0.21 0  0.15 0.21 0  0.165 0.21 0  0.18 0.21 0  0.195 0.21 0  0.21 0.21 0  0.225 0.21 0  0.24 0.21 0  0.255 0.21 0  0.27 0.21 0  0.285 0.21 0  0.3 0.21 0  0 0.225 0  0.015 0.225 0  0.03 0.225 0  0.045 0.225 0  0.06 0.225 0  0.075 0.225 0  0.09 0.225 0  0.105 0.225 0  0.12 0.225 0  0.135 0.225 0  0.15 0.225 0  0.165 0.225 0  0.18 0.225 0  0.195 0.225 0  0.21 0.225 0  0.225 0.225 0  0.24 0.225 0  0.255 0.225 0  0.27 0.225 0  0.285 0.225 0  0.3 0.225 0  0 0.24 0  0.015 0.24 0  0.03 0.24 0  0.045 0.24 0  0.06 0.24 0  0.075 0.24 0  0.09 0.24 0  0.105 0.24 0  0.12 0.24 0  0.135 0.24 0  0.15 0.24 0  0.165 0.24 0  0.18 0.24 0  0.195 0.24 0  0.21 0.24 0  0.225 0.24 0  0.24 0.24 0  0.255 0.24 0  0.27 0.24 0  0.285 0.24 0  0.3 0.24 0  0 0.255 0  0.015 0.255 0  0.03 0.255 0  0.045 0.255 0  0.06 0.255 0  0.075 0.255 0  0.09 0.255 0  0.105 0.255 0  0.12 0.255 0  0.135 0.255 0  0.15 0.255 0  0.165 0.255 0  0.18 0.255 0  0.195 0.255 0  0.21 0.255 0  0.225 0.255 0  0.24 0.255 0  0.255 0.255 0  0.27 0.255 0  0.285 0.255 0  0.3 0.255 0  0 0.27 0  0.015 0.27 0  0.03 0.27 0  0.045 0.27 0  0.06 0.27 0  0.075 0.27 0  0.09 0.27 0  0.105 0.27 0  0.12 0.27 0  0.135 0.27 0  0.15 0.27 0  0.165 0.27 0  0.18 0.27 0  0.195 0.27 0  0.21 0.27 0  0.225 0.27 0  0.24 0.27 0  0.255 0.27 0  0.27 0.27 0  0.285 0.27 0  0.3 0.27 0  0 0.285 0  0.015 0.285 0  0.03 0.285 0  0.045 0.285 0  0.06 0.285 0  0.075 0.285 0  0.09 0.285 0  0.105 0.285 0  0.12 0.285 0  0.135 0.285 0  0.15 0.285 0  0.165 0.285 0  0.18 0.285 0  0.195 0.285 0  0.21 0.285 0  0.225 0.285 0  0.24 0.285 0  0.255 0.285 0  0.27 0.285 0  0.285 0.285 0  0.3 0.285 0  0 0.3 0  0.015 0.3 0  0.03 0.3 0  0.045 0.3 0  0.06 0.3 0  0.075 0.3 0  0.09 0.3 0  0.105 0.3 0  0.12 0.3 0  0.135 0.3 0  0.15 0.3 0  0.165 0.3 0  0.18 0.3 0  0.195 0.3 0  0.21 0.3 0  0.225 0.3 0  0.24 0.3 0  0.255 0.3 0  0.27 0.3 0  0.285 0.3 0  0.3 0.3 0  0 0 0.00075  0.015 0 0.00075  0.03 0 0.00075  0.045 0 0.00075  0.06 0 0.00075  0.075 0 0.00075  0.09 0 0.00075  0.105 0 0.00075  0.12 0 0.00075  0.135 0 0.00075  0.15 0 0.00075  0.165 0 0.00075  0.18 0 0.00075  0.195 0 0.00075  0.21 0 0.00075  0.225 0 0.00075  0.24 0 0.00075  0.255 0 0.00075  0.27 0 0.00075  0.285 0 0.00075  0.3 0 0.00075  0 0.015 0.00075  0.015 0.015 0.00075  0.03 0.015 0.00075  0.045 0.015 0.00075  0.06 0.015 0.00075  0.075 0.015 0.00075  0.09 0.015 0.00075  0.105 0.015 0.00075  0.12 0.015 0.00075  0.135 0.015 0.00075  0.15 0.015 0.00075  0.165 0.015 0.00075  0.18 0.015 0.00075  0.195 0.015 0.00075  0.21 0.015 0.00075  0.225 0.015 0.00075  0.24 0.015 0.00075  0.255 0.015 0.00075  0.27 0.015 0.00075  0.285 0.015 0.00075  0.3 0.015 0.00075  0 0.03 0.00075  0.015 0.03 0.00075  0.03 0.03 0.00075  0.045 0.03 0.00075  0.06 0.03 0.00075  0.075 0.03 0.00075  0.09 0.03 0.00075  0.105 0.03 0.00075  0.12 0.03 0.00075  0.135 0.03 0.00075  0.15 0.03 0.00075  0.165 0.03 0.00075  0.18 0.03 0.00075  0.195 0.03 0.00075  0.21 0.03 0.00075  0.225 0.03 0.00075  0.24 0.03 0.00075  0.255 0.03 0.00075  0.27 0.03 0.00075  0.285 0.03 0.00075  0.3 0.03 0.00075  0 0.045 0.00075  0.015 0.045 0.00075  0.03 0.045 0.00075  0.045 0.045 0.00075  0.06 0.045 0.00075  0.075 0.045 0.00075  0.09 0.045 0.00075  0.105 0.045 0.00075  0.12 0.045 0.00075  0.135 0.045 0.00075  0.15 0.045 0.00075  0.165 0.045 0.00075  0.18 0.045 0.00075  0.195 0.045 0.00075  0.21 0.045 0.00075  0.225 0.045 0.00075  0.24 0.045 0.00075  0.255 0.045 0.00075  0.27 0.045 0.00075  0.285 0.045 0.00075  0.3 0.045 0.00075  0 0.06 0.00075  0.015 0.06 0.00075  0.03 0.06 0.00075  0.045 0.06 0.00075  0.06 0.06 0.00075  0.075 0.06 0.00075  0.09 0.06 0.00075  0.105 0.06 0.00075  0.12 0.06 0.00075  0.135 0.06 0.00075  0.15 0.06 0.00075  0.165 0.06 0.00075  0.18 0.06 0.00075  0.195 0.06 0.00075  0.21 0.06 0.00075  0.225 0.06 0.00075  0.24 0.06 0.00075  0.255 0.06 0.00075  0.27 0.06 0.00075  0.285 0.06 0.00075  0.3 0.06 0.00075  0 0.075 0.00075  0.015 0.075 0.00075  0.03 0.075 0.00075  0.045 0.075 0.00075  0.06 0.075 0.00075  0.075 0.075 0.00075  0.09 0.075 0.00075  0.105 0.075 0.00075  0.12 0.075 0.00075  0.135 0.075 0.00075  0.15 0.075 0.00075  0.165 0.075 0.00075  0.18 0.075 0.00075  0.195 0.075 0.00075  0.21 0.075 0.00075  0.225 0.075 0.00075  0.24 0.075 0.00075  0.255 0.075 0.00075  0.27 0.075 0.00075  0.285 0.075 0.00075  0.3 0.075 0.00075  0 0.09 0.00075  0.015 0.09 0.00075  0.03 0.09 0.00075  0.045 0.09 0.00075  0.06 0.09 0.00075  0.075 0.09 0.00075  0.09 0.09 0.00075  0.105 0.09 0.00075  0.12 0.09 0.00075  0.135 0.09 0.00075  0.15 0.09 0.00075  0.165 0.09 0.00075  0.18 0.09 0.00075  0.195 0.09 0.00075  0.21 0.09 0.00075  0.225 0.09 0.00075  0.24 0.09 0.00075  0.255 0.09 0.00075  0.27 0.09 0.00075  0.285 0.09 0.00075  0.3 0.09 0.00075  0 0.105 0.00075  0.015 0.105 0.00075  0.03 0.105 0.00075  0.045 0.105 0.00075  0.06 0.105 0.00075  0.075 0.105 0.00075  0.09 0.105 0.00075  0.105 0.105 0.00075  0.12 0.105 0.00075  0.135 0.105 0.00075  0.15 0.105 0.00075  0.165 0.105 0.00075  0.18 0.105 0.00075  0.195 0.105 0.00075  0.21 0.105 0.00075  0.225 0.105 0.00075  0.24 0.105 0.00075  0.255 0.105 0.00075  0.27 0.105 0.00075  0.285 0.105 0.00075  0.3 0.105 0.00075  0 0.12 0.00075  0.015 0.12 0.00075  0.03 0.12 0.00075  0.045 0.12 0.00075  0.06 0.12 0.00075  0.075 0.12 0.00075  0.09 0.12 0.00075  0.105 0.12 0.00075  0.12 0.12 0.00075  0.135 0.12 0.00075  0.15 0.12 0.00075  0.165 0.12 0.00075  0.18 0.12 0.00075  0.195 0.12 0.00075  0.21 0.12 0.00075  0.225 0.12 0.00075  0.24 0.12 0.00075  0.255 0.12 0.00075  0.27 0.12 0.00075  0.285 0.12 0.00075  0.3 0.12 0.00075  0 0.135 0.00075  0.015 0.135 0.00075  0.03 0.135 0.00075  0.045 0.135 0.00075  0.06 0.135 0.00075  0.075 0.135 0.00075  0.09 0.1
[...]
<PointData  Vectors="f_205"> 
<DataArray  type="Float64"  Name="f_205"  NumberOfComponents="3" format="ascii">-2.4128673796360527e+01 -4.9358090840079775e+01 -1.8792547334910878e+00  -1.9826232952677685e+01 -4.7775843055327783e+01 -1.9043981910559420e+00  -1.5583543409274647e+01 -4.6104884764959237e+01 -1.8934096253491677e+00  -1.1473517319515496e+01 -4.4340484557619860e+01 -1.8645908376395992e+00  -7.5317518711537073e+00 -4.2506743224120143e+01 -1.8289031473211461e+00  -3.7674887163631965e+00 -4.0625124659298123e+01 -1.7911130711004450e+00  -1.7607077882911495e-01 -3.8706324819722447e+01 -1.7533556379368318e+00  3.2542240261202982e+00 -3.6748719766675187e+01 -1.7165499941234610e+00  6.5366169678023898e+00 -3.4735312879616103e+01 -1.6789113052969680e+00  9.6738950351504691e+00 -3.2631860458750715e+01 -1.6330415664064579e+00  1.2640079400785572e+01 -3.0397796110311365e+01 -1.5672980885952099e+00  1.5376993277513881e+01 -2.8014679596677151e+01 -1.4757240887929870e+00  1.7823913568648852e+01 -2.5506082662375032e+01 -1.3648741317736537e+00  1.9949087966583534e+01 -2.2921282071563855e+01 -1.2454201444156214e+00  2.1750551853931555e+01 -2.0306607292239047e+01 -1.1231501208570263e+00  2.3239751130831653e+01 -1.7694746656783526e+01 -9.9881887280666204e-01  2.4429782952948898e+01 -1.5110266844818234e+01 -8.7155726874472261e-01  2.5333815656487136e+01 -1.2579672288241769e+01 -7.4251836131776872e-01  2.5975524827969256e+01 -1.0138852511631464e+01 -6.2045347030342546e-01  2.6416432092326552e+01 -7.8244110989062570e+00 -5.2725184414714765e-01  2.6784925757725325e+01 -5.6293540654747254e+00 -4.9047681485197420e-01  -2.5719233624481774e+01 -4.5077032853878066e+01 -1.8536816814230221e+00  -2.1443230775509235e+01 -4.3566425847124478e+01 -1.8871613149730488e+00  -1.7246344956944728e+01 -4.2024749338474592e+01 -1.8794752357649760e+00  -1.3189030087835611e+01 -4.0419416933165252e+01 -1.8493204943949599e+00  -9.2973406561222873e+00 -3.8754834595234172e+01 -1.8105920625507976e+00  -5.5790933667500289e+00 -3.7042041900277098e+01 -1.7694706059108127e+00  -2.0339611018662085e+00 -3.5287005609050794e+01 -1.7282848919048439e+00  1.3422668664615485e+00 -3.3487177842095697e+01 -1.6877455138885888e+00  4.5544332560846517e+00 -3.1630381408648244e+01 -1.6462474568757079e+00  7.6009453686484107e+00 -2.9696183385154544e+01 -1.5974764891897684e+00  1.0462455673798114e+01 -2.7663240395373403e+01 -1.5307424437946613e+00  1.3098449124453037e+01 -2.5522529598158634e+01 -1.4388535044925002e+00  1.5465515727776468e+01 -2.3286747732431166e+01 -1.3261630315637756e+00  1.7540100696295397e+01 -2.0985413714227526e+01 -1.2031767304735026e+00  1.9319954128858363e+01 -1.8651525800047168e+01 -1.0768106781705988e+00  2.0812509255975883e+01 -1.6313197701162888e+01 -9.4857282853825087e-01  2.2026939179188311e+01 -1.3993814969231765e+01 -8.1784574794706744e-01  2.2973148877385711e+01 -1.1715905449150856e+01 -6.8589202829328211e-01  2.3668460176206736e+01 -9.5021423223560166e+00 -5.6134380615616852e-01  2.4157748791297116e+01 -7.3635102592239372e+00 -4.6557804287011523e-01  2.4545969232464021e+01 -5.2610594046007577e+00 -4.2149289198398648e-01  -2.7238186925392352e+01 -4.0767378441010038e+01 -1.8281081844142353e+00  -2.2977221865427875e+01 -3.9357944756760489e+01 -1.8652319411244758e+00  -1.8795168845320486e+01 -3.7945399173541894e+01 -1.8600741981166440e+00  -1.4762363122583048e+01 -3.6496001882332720e+01 -1.8285249266747239e+00  -1.0902602370497132e+01 -3.5000210556111014e+01 -1.7864660013454614e+00  -7.2209316972698021e+00 -3.3458794161870316e+01 -1.7411393245586626e+00  -3.7169410740820745e+00 -3.1872666889030235e+01 -1.6948884453797541e+00  -3.8881142336576219e-01 -3.0238666878318195e+01 -1.6479888149028057e+00  2.7648066803210267e+00 -2.8548954728655985e+01 -1.5987919132382136e+00  5.7405358311028225e+00 -2.6793324592958740e+01 -1.5423961101044394e+00  8.5231634377964767e+00 -2.4963857940805106e+01 -1.4708770717248509e+00  1.1083078237526424e+01 -2.3059383238253584e+01 -1.3783940634827223e+00  1.3387932309888953e+01 -2.1087365670891558e+01 -1.2672588703640864e+00  1.5419264229065556e+01 -1.9063350519358771e+01 -1.1452951571388525e+00  1.7174632261121484e+01 -1.7007791190755341e+01 -1.0185280094695404e+00  1.8658651196496486e+01 -1.4942006908481900e+01 -8.8880419101863595e-01  1.9876449253450609e+01 -1.2885866809278630e+01 -7.5612327152997394e-01  2.0833077867852086e+01 -1.0857013635493860e+01 -6.2246782216985430e-01  2.1540386861733449e+01 -8.8681019415884990e+00 -4.9743525198444799e-01  2.2038617409779445e+01 -6.9162899491088901e+00 -4.0353577143778191e-01  2.2434813672079191e+01 -4.9603219268966736e+00 -3.6261835015544003e-01  -2.8631703668993989e+01 -3.6426090999088458e+01 -1.8057522702851936e+00  -2.4382098146810197e+01 -3.5147064153339258e+01 -1.8443981983629789e+00  -2.0207222636241248e+01 -3.3875341350546520e+01 -1.8401090365442514e+00  -1.6185860067027281e+01 -3.2582798647638192e+01 -1.8074274396620558e+00  -1.2345096955884207e+01 -3.1255578612006822e+01 -1.7624109021332566e+00  -8.6894978486242067e+00 -2.9888141574792254e+01 -1.7127637478707263e+00  -5.2180272584364626e+00 -2.8477673558800799e+01 -1.6608436642729023e+00  -1.9294470550409584e+00 -2.7020722822861760e+01 -1.6066768144320904e+00  1.1760063103046183e+00 -2.5512664287911960e+01 -1.5487382549405428e+00  4.0940675535855595e+00 -2.3949443762573985e+01 -1.4835704394162756e+00  6.8124784492145141e+00 -2.2329994318496219e+01 -1.4061620415672660e+00  9.3098171776553809e+00 -2.0656858902558476e+01 -1.3128035645235487e+00  1.1562613160202195e+01 -1.8935234140016266e+01 -1.2045033086249122e+00  1.3556086096022643e+01 -1.7173517669530316e+01 -1.0858768477975635e+00  1.5286483702422181e+01 -1.5384032331971229e+01 -9.6100385802606980e-01  1.6755356685607154e+01 -1.3581681873786234e+01 -8.3161446629247926e-01  1.7964565966491449e+01 -1.1781459880229924e+01 -6.9838416288764860e-01  1.8915997904122570e+01 -9.9958575156720251e+00 -5.6410086521688219e-01  1.9619089718778678e+01 -8.2309867761896651e+00 -4.3916452918394777e-01  2.0113952240158032e+01 -6.4790893774332590e+00 -3.4673541899901261e-01  2.0511361109577884e+01 -4.7077510552571944e+00 -3.0793277451797435e-01  -2.9871091594662797e+01 -3.2059455163638702e+01 -1.7877243468289556e+00  -2.5630760471438577e+01 -3.0932448760175252e+01 -1.8266401496929794e+00  -2.1461176501705744e+01 -2.9814744875947870e+01 -1.8220090465990268e+00  -1.7446674978628195e+01 -2.8684685085078069e+01 -1.7877808235029027e+00  -1.3617994310751429e+01 -2.7528646341258945e+01 -1.7399492552702887e+00  -9.9809652824966051e+00 -2.6338736147070662e+01 -1.6862389223224563e+00  -6.5347039438045904e+00 -2.5110348774292842e+01 -1.6289894825908118e+00  -3.2782547335875423e+00 -2.3840057402010036e+01 -1.5681911371679518e+00  -2.1254150763679469e-01 -2.2525199983513481e+01 -1.5026111364229207e+00  2.6580299214848861e+00 -2.1164785260108712e+01 -1.4299508916468771e+00  5.3236172065455563e+00 -1.9760364190983033e+01 -1.3472791125601746e+00  7.7687997286171093e+00 -1.8315356219979659e+01 -1.2525180030781424e+00  9.9768535404833560e+00 -1.6833733573738378e+01 -1.1460505711384359e+00  1.1936019218141229e+01 -1.5320724924605631e+01 -1.0302286914671817e+00  1.3641370225223282e+01 -1.3784210906296487e+01 -9.0739173675173201e-01  1.5091767286152541e+01 -1.2234321576618376e+01 -7.7887325106185168e-01  1.6286669371428456e+01 -1.0681460565176975e+01 -6.4574379211530186e-01  1.7226310082411931e+01 -9.1336862182442751e+00 -5.1137924232302745e-01  1.7919612977560792e+01 -7.5932902914907539e+00 -3.8669181482962256e-01  1.8407861398728432e+01 -6.0521975667245567e+00 -2.9505984003795688e-01  1.8804116188564375e+01 -4.4883412502809987e+00 -2.5701040904440592e-01  -3.0939967653434401e+01 -2.7674919641717228e+01 -1.7744960101885778e+00  -2.6707318224342892e+01 -2.6714872617383836e+01 -1.8128801220642718e+00  -2.2542485403202207e+01 -2.5762780319469545e+01 -1.8071084608879493e+00  -1.8533371230926530e+01 -2.4802497031695189e+01 -1.7709043215471822e+00  -1.4713600026901698e+01 -2.3822326667383642e+01 -1.7202646800749362e+00  -1.1090702722531974e+01 -2.2814213295426448e+01 -1.6628376921080485e+00  -7.6645248669073949e+00 -2.1773330896858621e+01 -1.6009360050207937e+00  -4.4344755102874505e+00 -2.0696538932009961e+01 -1.5346173847901472e+00  -1.4017309101723676e+00 -1.9582175719992964e+01 -1.4629835148190762e+00  1.4296657658690122e+00 -1.8430418310266877e+01 -1.3845595735278957e+00  4.0519349310453228e+00 -1.7243338553235812e+01 -1.2976682386330110e+00  6.4538876368539881e+00 -1.6024009315326936e+01 -1.2011772914342933e+00  8.6235003379326862e+00 -1.4775552553608186e+01 -1.0951843088208779e+00  1.0551402105654985e+01 -1.3501722856954601e+01 -9.8077992169995376e-01  1.2232148653967096e+01 -1.2207956572757675e+01 -8.5919032464469669e-01  1.3662824475331222e+01 -1.0901136560033240e+01 -7.3135021973636316e-01  1.4841345233958933e+01 -9.5881460094386846e+00 -5.9845501325472561e-01  1.5767203626294163e+01 -8.2738363878521124e+00 -4.6418477221632248e-01  1.6449586644011145e+01 -6.9585789893696308e+00 -3.3968793330662644e-01  1.6930932638853367e+01 -5.6358193646668546e+00 -2.4828975841007364e-01  1.7325080129635257e+01 -4.2920040665962098e+00 -2.1002502650217553e-01  -3.1828755517610169e+01 -2.3278665021360968e+01 -1.7663651507875839e+00  -2.7602287438288450e+01 -2.2495790621719369e+01 -1.8036802764573006e+00  -2.3441703805930928e+01 -2.1718738455948152e+01 -1.7962316859116549e+00  -1.9437372026325104e+01 -2.0935408535412389e+01 -1.7577261978859315e+00  -1.5625026918110335e+01 -2.0136445501592341e+01 -1.7042903286652513e+00  -1.2013786401736263e+01 -1.9314472434051687e+01 -1.6434782448115317e+00  -8.6043140813485675e+00 -1.8465485668801765e+01 -1.5775968133339198e+00  -5.3963719281494260e+00 -1.7586770541569223e+01 -1.5067848428874484e+00  -2.3911663335519235e+00 -1.6677069553655613e+01 -1.4304251809392790e+00  4.0783649661053223e-01 -1.5736751354877182e+01 -1.3475860022276158e+00  2.9945574020273580e+00 -1.4767563167420182e+01 -1.2572962318995644e+00  5.3607363451054955e+00 -1.3771880752439767e+01 -1.1589153706942270e+00  7.4974953430698985e+00 -1.2752132769081843e+01 -1.0524140197193204e+00  9.3972736916689463e+00 -1.1711190405415897e+01 -9.3826055665332642e-01  1.1054658378482928e+01 -1.0652961905784398e+01 -8.1707478221939633e-01  1.2465848800104434e+01 -9.5821515508805266e+00 -6.8949818642667349e-01  1.3627944919649416e+01 -8.5032375922003993e+00 -5.5670774607518270e-01  1.4540198569248355e+01 -7.4190662108101595e+00 -4.2248211725701879e-01  1.5212238157624505e+01 -6.3293098997348611e+00 -2.9800977959832520e-01  1.5687250675290892e+01 -5.2293959510068051e+00 -2.0641894110079390e-01  1.6078855907372301e+01 -4.1118954596526516e+00 -1.6733629868390340e-01  -3.2531895890641948e+01 -1.8874891849921511e+01 -1.7637680713809940e+00  -2.8309870553427093e+01 -1.8276500889705819e+01 -1.7996142117206630e+00  -2.4152599688142590e+01 -1.7682077875258116e+01 -1.7900710144615364e+00  -2.0152391938493455e+01 -1.7082035797209688e+01 -1.7489345331883712e+00  -1.6346515962569573e+01 -1.6469347569246430e+01 -1.6927006967257376e+00  -1.2745498740035462e+01 -1.5837345810737647e+01 -1.6287688859456522e+00  -9.3505398311790469e+00 -1.5183757631040509e+01 -1.5594647970186692e+00  -6.1615421805944637e+00 -1.4506242818880793e+01 -1.4849510635640171e+00  -3.1795957780676232e+00 -1.3803591099200185e+01 -1.4048054333820630e+00  -4.0756266147604325e-01 -1.3075936393322758e+01 -1.3184414012333074e+00  2.1498139400693161e+00 -1.2324442641926467e+01 -1.2252840746975260e+00  4.4862955627620709e+00 -1.1550756681929640e+01 -1.1249497292843964e+00  6.5951091342569841e+00 -1.0756676131840450e+01 -1.0173621855266708e+00  8.4700517490799534e+00 -9.9443688417955940e+00 -9.0270348579928283e-01  1.0106044320147227e+01 -9.1166510399337728e+00 -7.8128582131459601e-01  1.1499012198993505e+01 -8.2767551144264129e+00 -6.5356077079305086e-01  1.2645747724867430e+01 -7.4276328205235416e+00 -5.2063850373118559e-01  1.3545520151272937e+01 -6.5710457084087057e+00 -3.8628678962720103e-01  1.4208344268133345e+01 -5.7066825617464207e+00 -2.6162368639253814e-01  1.4677748202740435e+01 -4.8318520834197711e+00 -1.6952001752299392e-01  1.5066604973311245e+01 -3.9432807369302401e+00 -1.2926155406363268e-01  -3.3045825228956332e+01 -1.4464920083789785e+01 -1.7675538638062831e+00  -2.8826017812606374e+01 -1.4057185299685841e+01 -1.8016470023260647e+00  -2.4670774257973310e+01 -1.3651928970251731e+01 -1.7897304448815827e+00  -2.0673710351429310e+01 -1.3240793053080923e+01 -1.7454418215421625e+00  -1.6873146879806267e+01 -1.2818747276449431e+01 -1.6861818814665850e+00  -1.3281489969961436e+01 -1.2379651808003930e+01 -1.6191455092048583e+00  -9.8997452282782845e+00 -1.1924293578684210e+01 -1.5468186898914007e+00  -6.7274563542779591e+00 -1.1450298898805666e+01 -1.4691681153840332e+00  -3.7654823207052601e+00 -1.0956233415235111e+01 -1.3858605385372003e+00  -1.0161543421248644e+00 -1.0441845078311429e+01 -1.2965307894468059e+00  1.5167870713546652e+00 -9.9076884525782170e+00 -1.2008365518523170e+00  3.8285023343580717e+00 -9.3547321764348563e+00 -1.0985388615212313e+00  5.9136530461470240e+00 -8.7841670427658585e+00 -9.8955468045261064e-01  7.7670598872297951e+00 -8.1975167095429917e+00 -8.7394074389025389e-01  9.3840897564917025e+00 -7.5967491413915438e+00 -7.5185687306882998e-01  1.0760726281926244e+01 -6.9840907613949996e+00 -6.2363763847446607e-01  1.1893743323451986e+01 -6.3615771162450265e+00 -4.9032253133761172e-01  1.2782534402049347e+01 -5.7304996608375962e+00 -3.5562347238568975e-01  1.3437380591995693e+01 -5.0909451883259536e+00 -2.3054010771948535e-01  1.3901855189719644e+01 -4.4418512517458799e+00 -1.3767516234860128e-01  1.4287874885437247e+01 -3.7827454619545025e+00 -9.6027692559944339e-02  -3.3365759879698409e+01 -1.0046066661227883e+01 -1.7781969754797442e+00  -2.9146273660289491e+01 -9.8351527180082332e+00 -1.8106937008388984e+00  -2.4992164370411164e+01 -9.6245039120288300e+00 -1.7966059196015676e+00  -2.0998515532040813e+01 -9.4087064667026379e+00 -1.7493816822864516e+00  -1.7200657955334727e+01 -9.1809738724334071e+00 -1.6864415508473953e+00  -1.3617706966827024e+01 -8.9373974335851862e+00 -1.6152116645835648e+00  -1.0248856943637978e+01 -8.6829436495832280e+00 -1.5399005502273844e+00  -7.0918806114446928e+00 -8.4144953146696153e+00 -1.4594493942114688e+00  -4.1474037816707652e+00 -8.1302576142197953e+00 -1.3733678595213008e+00  -1.4174288481883526e+00 -7.8296054654915448e+00 -1.2814152081346655e+00  1.0949917163408243e+00 -7.5125473059186660e+00 -1.1833908912511797e+00  3.3859796796968120e+00 -7.1794377171858823e+00 -1.0791440436072521e+00  5.4511958535701828e+00 -6.8308765364574366e+00 -9.6860118190001732e-01  7.2862396617794385e+00 -6.4677736415010854e+00 -8.5176672195288816e-01  8.8869271008119028e+00 -6.0914005888996412e+00 -7.2872448868815454e-01  1.0249438458607738e+01 -5.7032769109262285e+00 -5.9973708532486347e-01  1.1370650070927486e+01 -5.3049129268735369e+00 -4.6578340485742981e-01  1.2250085402286340e+01 -4.8975066945540364e+00 -3.3050773485604207e-01  1.2898160620735826e+01 -4.4817362162618233e+00 -2.0478021397071633e-01  1.3358305248473309e+01 -4.0579466017800216e+00 -1.1095179051207218e-01  1.3741457319822086e+01 -3.6276576183676923e+00 -6.7782627193789177e-02  -3.3482479085937221e+01 -5.6175790737126174e+00 -1.7937313052417827e+00  -2.9264590912507519e+01 -5.6079082084474043e+00 -1.8251047262119295e+00  -2.5112827039646994e+01 -5.5929632599049697e+00 -1.8096633629209500e+00  -2.1122171178433163e+01 -5.5716513639750982e+00 -1.7610623983382596e+00  -1.7328216274798407e+01 -5.5429692632815426e+00 -1.6973377310514011e+00  -1.3751336502871540e+01 -5.5047677533511150e+00 -1.6179510761495839e+00  -1.0396016454322211e+01 -5.4554650998827636e+00 -1.5389925453334443e+00  -7.2534259720773475e+00 -5.3947931576991772e+00 -1.4558141013086447e+00  -4.3243735812668671e+00 -5.3216277453256815e+00 -1.3671668153275784e+00  -1.6109597047395714e+00 -5.2352639344323899e+00 -1.2727936615256479e+00  8.8416396089434834e-01 -5.1352926669283088e+00 -1.1725675851165982e+00  3.1577914861122212e+00 -5.0215215796287467e+00 -1.0663907154132759e+00  5.2063129237069363e+00 -4.8939745895149329e+00 -9.5420257334746583e-01  7.0259382652230400e+00 -4.7529648782540601e+00 -8.3598645854638076e-01  8.6128919093766285e+00 -4.5991544647169578e+00 -7.1178627533663130e-01  9.9635791805476597e+00 -4.4335287429187025e+00 -5.8181790646151776e-01  1.1074990664735292e+01 -4.2572986218954298e+00 -4.4701035333134892e-01  1.1946716880336306e+01 -4.0717828955588029e+00 -3.1094212666161558e-01  1.2589172274706391e+01 -3.8783552358836157e+00 -1.8436105938215788e-01  1.3045518123440310e+01 -3.6786510335440421e+00 -8.9395920909364407e-02  1.3425784364537657e+01 -3.4758036624222379e+00 -4.4614952591969896e-02  -3.3384907766781417e+01 -1.1912533088672201e+00 -1.8118392901479383e+00  -2.9171622248363310e+01 -1.3845078728329994e+00 -1.8415301413400940e+00  -2.5024065102753838e+01 -1.5676376947137209e+00 -1.8233146274317504e+00  -2.1039123108637764e+01 -1.7432491236117267e+00 -1.7712252412842666e+00  -1.7256494874332255e+01 -1.9124613506008874e+00 -1.7022594679726710e+00  -1.3689374339348577e+01 -2.0797014607368847e+00 -1.6245965148400960e+00  -1.0343975095707771e+01 -2.2391632909493171e+00 -1.5437223347709075e+00  -7.2123385250264347e+00 -2.3881137389300018e+00 -1.4581769794231538e+00  -4.2959026928132866e+00 -2.5270971827752562e+00 -1.3671325295152883e+00  -1.5963662819843751e+00 -2.6556177338541893e+00 -1.2704633692749634e+00  8.8422830452188905e-01 -2.7729334116493281e+00 -1.1681114464314759e+00  3.1433222723895442e+00 -2.8783350615154051e+00 -1.0600172650242212e+00  5.1779251700356994e+00 -2.9712657804242659e+00 -9.4613253393822094e-01  6.9847653426644429e+00 -3.0514336184757349e+00 -8.2643124111358601e-01  8.5604334317386304e+00 -3.1189149237647289e+00 -7.0093288194907521e-01  9.9015396971502625e+00 -3.1742269877177702e+00 -5.6981883341972239e-01  1.1005140730136985e+01 -3.2183771420710983e+00 -4.3397499038777515e-01  1.1870784647894551e+01 -3.2529057889295308e+00 -2.9691918821630042e-01  1.2508729524647100e+01 -3.2799528126808526e+00 -1.6929084864474997e-01  1.2961758414412769e+01 -3.3024535876069114e+00 -7.3031498572328768e-02  1.3339089005498733e+01 -3.3251237315576407e+00 -2.6567956566320577e-02  -3.3080144681044736e+01 3.2241467083824906e+00 -1.8351655600932346e+00  -2.8872259852666737e+01 2.8286999372681527e+00 -1.8629037845229963e+00  -2.4730897069043380e+01 2.4457423433964114e+00 -1.8424049939783802e+00  -2.0753786982137967e+01 2.0704185228521723e+00 -1.7880309507575411e+00  -1.6981008693539859e+01 1.6993588762260330e+00 -1.7171499520285725e+00  -1.3424421895869468e+01 1.3297116457149591e+00 -1.6384257506091238e+00  -1.0086395735886557e+01 9.6584673929468123e-01 -1.5553185679735231e+00  -6.9648218179628367e+00 6.0759236970795061e-01 -1.4669460747263239e+00  -4.0598784978687110e+00 2.5595898592805305e-01 -1.3733280331802047e+00  -1.3725763335918366e+00 -8.7984651832176061e-02 -1.2743300355542428e+00  1.0955044825065565e+00 -4.2296654261147615e-01 -1.1698571173255841e+00  3.3422730351450025e+00 -7.4769331475087430e-01 -1.0598385257234992e+00  5.3652182148138126e+00 -1.0609827241013927e+00 -9.4421963814535204e-01  7.1615026210250781e+00 -1.3618947325532267e+00 -8.2296228640786284e-01  8.7280450682332145e+00 -1.6498807920578173e+00 -6.9606473827018467e-01  1.0061631409446759e+01 -1.9249567767201512e+00 -5.6367738754198282e-01  1.1159315803922224e+01 -2.1879039893346501e+00 -4.2664486625492859e-01  1.2020465673124029e+01 -2.4404869440590016e+00 -2.8842740402475298e-01  1.2654992898347908e+01 -2.6856626995212833e+00 -1.5956953816032990e-01  1.3105155395937032e+01 -2.9278028520703674e+00 -6.1861168271085371e-02  1.3479421566578319e+01 -3.1734861320487844e+00 -1.3645975512444069e-02  -3.2574378840899527e+01 7.6287375164308973e+00 -1.8649321928853246e+00  -2.8370115409284359e+01 7.0330996294462755e+00 -1.8907