<?xml version="1.0"?>
<VTKFile type="UnstructuredGrid"  version="0.1"  >
<UnstructuredGrid>
<Piece  NumberOfPoints="9261" NumberOfCells="48000">
<Points>
<DataArray  type="Float64"  NumberOfComponents="3"  format="ascii">0 0 0  0.015 0 0  0.03 0 0  0.045 0 0  0.06 0 0  0.075 0 0  0.09 0 0  0.105 0 0  0.12 0 0  0.135 0 0  0.15 0 0  0.165 0 0  0.18 0 0  0.195 0 0  0.21 0 0  0.225 0 0  0.24 0 0  0.255 0 0  0.27 0 0  0.285 0 0  0.3 0 0  0 0.015 0  0.015 0.015 0  0.03 0.015 0  0.045 0.015 0  0.06 0.015 0  0.075 0.015 0  0.09 0.015 0  0.105 0.015 0  0.12 0.015 0  0.135 0.015 0  0.15 0.015 0  0.165 0.015 0  0.18 0.015 0  0.195 0.015 0  0.21 0.015 0  0.225 0.015 0  0.24 0.015 0  0.255 0.015 0  0.27 0.015 0  0.285 0.015 0  0.3 0.015 0  0 0.03 0  0.015 0.03 0  0.03 0.03 0  0.045 0.03 0  0.06 0.03 0  0.075 0.03 0  0.09 0.03 0  0.105 0.03 0  0.12 0.03 0  0.135 0.03 0  0.15 0.03 0  0.165 0.03 0  0.18 0.03 0  0.195 0.03 0  0.21 0.03 0  0.225 0.03 0  0.24 0.03 0  0.255 0.03 0  0.27 0.03 0  0.285 0.03 0  0.3 0.03 0  0 0.045 0  0.015 0.045 0  0.03 0.045 0  0.045 0.045 0  0.06 0.045 0  0.075 0.045 0  0.09 0.045 0  0.105 0.045 0  0.12 0.045 0  0.135 0.045 0  0.15 0.045 0  0.165 0.045 0  0.18 0.045 0  0.195 0.045 0  0.21 0.045 0  0.225 0.045 0  0.24 0.045 0  0.255 0.045 0  0.27 0.045 0  0.285 0.045 0  0.3 0.045 0  0 0.06 0  0.015 0.06 0  0.03 0.06 0  0.045 0.06 0  0.06 0.06 0  0.075 0.06 0  0.09 0.06 0  0.105 0.06 0  0.12 0.06 0  0.135 0.06 0  0.15 0.06 0  0.165 0.06 0  0.18 0.06 0  0.195 0.06 0  0.21 0.06 0  0.225 0.06 0  0.24 0.06 0  0.255 0.06 0  0.27 0.06 0  0.285 0.06 0  0.3 0.06 0  0 0.075 0  0.015 0.075 0  0.03 0.075 0  0.045 0.075 0  0.06 0.075 0  0.075 0.075 0  0.09 0.075 0  0.105 0.075 0  0.12 0.075 0  0.135 0.075 0  0.15 0.075 0  0.165 0.075 0  0.18 0.075 0  0.195 0.075 0  0.21 0.075 0  0.225 0.075 0  0.24 0.075 0  0.255 0.075 0  0.27 0.075 0  0.285 0.075 0  0.3 0.075 0  0 0.09 0  0.015 0.09 0  0.03 0.09 0  0.045 0.09 0  0.06 0.09 0  0.075 0.09 0  0.09 0.09 0  0.105 0.09 0  0.12 0.09 0  0.135 0.09 0  0.15 0.09 0  0.165 0.09 0  0.18 0.09 0  0.195 0.09 0  0.21 0.09 0  0.225 0.09 0  0.24 0.09 0  0.255 0.09 0  0.27 0.09 0  0.285 0.09 0  0.3 0.09 0  0 0.105 0  0.015 0.105 0  0.03 0.105 0  0.045 0.105 0  0.06 0.105 0  0.075 0.105 0  0.09 0.105 0  0.105 0.105 0  0.12 0.105 0  0.135 0.105 0  0.15 0.105 0  0.165 0.105 0  0.18 0.105 0  0.195 0.105 0  0.21 0.105 0  0.225 0.105 0  0.24 0.105 0  0.255 0.105 0  0.27 0.105 0  0.285 0.105 0  0.3 0.105 0  0 0.12 0  0.015 0.12 0  0.03 0.12 0  0.045 0.12 0  0.06 0.12 0  0.075 0.12 0  0.09 0.12 0  0.105 0.12 0  0.12 0.12 0  0.135 0.12 0  0.15 0.12 0  0.165 0.12 0  0.18 0.12 0  0.195 0.12 0  0.21 0.12 0  0.225 0.12 0  0.24 0.12 0  0.255 0.12 0  0.27 0.12 0  0.285 0.12 0  0.3 0.12 0  0 0.135 0  0.015 0.135 0  0.03 0.135 0  0.045 0.135 0  0.06 0.135 0  0.075 0.135 0  0.09 0.135 0  0.105 0.135 0  0.12 0.135 0  0.135 0.135 0  0.15 0.135 0  0.165 0.135 0  0.18 0.135 0  0.195 0.135 0  0.21 0.135 0  0.225 0.135 0  0.24 0.135 0  0.255 0.135 0  0.27 0.135 0  0.285 0.135 0  0.3 0.135 0  0 0.15 0  0.015 0.15 0  0.03 0.15 0  0.045 0.15 0  0.06 0.15 0  0.075 0.15 0  0.09 0.15 0  0.105 0.15 0  0.12 0.15 0  0.135 0.15 0  0.15 0.15 0  0.165 0.15 0  0.18 0.15 0  0.195 0.15 0  0.21 0.15 0  0.225 0.15 0  0.24 0.15 0  0.255 0.15 0  0.27 0.15 0  0.285 0.15 0  0.3 0.15 0  0 0.165 0  0.015 0.165 0  0.03 0.165 0  0.045 0.165 0  0.06 0.165 0  0.075 0.165 0  0.09 0.165 0  0.105 0.165 0  0.12 0.165 0  0.135 0.165 0  0.15 0.165 0  0.165 0.165 0  0.18 0.165 0  0.195 0.165 0  0.21 0.165 0  0.225 0.165 0  0.24 0.165 0  0.255 0.165 0  0.27 0.165 0  0.285 0.165 0  0.3 0.165 0  0 0.18 0  0.015 0.18 0  0.03 0.18 0  0.045 0.18 0  0.06 0.18 0  0.075 0.18 0  0.09 0.18 0  0.105 0.18 0  0.12 0.18 0  0.135 0.18 0  0.15 0.18 0  0.165 0.18 0  0.18 0.18 0  0.195 0.18 0  0.21 0.18 0  0.225 0.18 0  0.24 0.18 0  0.255 0.18 0  0.27 0.18 0  0.285 0.18 0  0.3 0.18 0  0 0.195 0  0.015 0.195 0  0.03 0.195 0  0.045 0.195 0  0.06 0.195 0  0.075 0.195 0  0.09 0.195 0  0.105 0.195 0  0.12 0.195 0  0.135 0.195 0  0.15 0.195 0  0.165 0.195 0  0.18 0.195 0  0.195 0.195 0  0.21 0.195 0  0.225 0.195 0  0.24 0.195 0  0.255 0.195 0  0.27 0.195 0  0.285 0.195 0  0.3 0.195 0  0 0.21 0  0.015 0.21 0  0.03 0.21 0  0.045 0.21 0  0.06 0.21 0  0.075 0.21 0  0.09 0.21 0  0.105 0.21 0  0.12 0.21 0  0.135 0.21 0  0.15 0.21 0  0.165 0.21 0  0.18 0.21 0  0.195 0.21 0  0.21 0.21 0  0.225 0.21 0  0.24 0.21 0  0.255 0.21 0  0.27 0.21 0  0.285 0.21 0  0.3 0.21 0  0 0.225 0  0.015 0.225 0  0.03 0.225 0  0.045 0.225 0  0.06 0.225 0  0.075 0.225 0  0.09 0.225 0  0.105 0.225 0  0.12 0.225 0  0.135 0.225 0  0.15 0.225 0  0.165 0.225 0  0.18 0.225 0  0.195 0.225 0  0.21 0.225 0  0.225 0.225 0  0.24 0.225 0  0.255 0.225 0  0.27 0.225 0  0.285 0.225 0  0.3 0.225 0  0 0.24 0  0.015 0.24 0  0.03 0.24 0  0.045 0.24 0  0.06 0.24 0  0.075 0.24 0  0.09 0.24 0  0.105 0.24 0  0.12 0.24 0  0.135 0.24 0  0.15 0.24 0  0.165 0.24 0  0.18 0.24 0  0.195 0.24 0  0.21 0.24 0  0.225 0.24 0  0.24 0.24 0  0.255 0.24 0  0.27 0.24 0  0.285 0.24 0  0.3 0.24 0  0 0.255 0  0.015 0.255 0  0.03 0.255 0  0.045 0.255 0  0.06 0.255 0  0.075 0.255 0  0.09 0.255 0  0.105 0.255 0  0.12 0.255 0  0.135 0.255 0  0.15 0.255 0  0.165 0.255 0  0.18 0.255 0  0.195 0.255 0  0.21 0.255 0  0.225 0.255 0  0.24 0.255 0  0.255 0.255 0  0.27 0.255 0  0.285 0.255 0  0.3 0.255 0  0 0.27 0  0.015 0.27 0  0.03 0.27 0  0.045 0.27 0  0.06 0.27 0  0.075 0.27 0  0.09 0.27 0  0.105 0.27 0  0.12 0.27 0  0.135 0.27 0  0.15 0.27 0  0.165 0.27 0  0.18 0.27 0  0.195 0.27 0  0.21 0.27 0  0.225 0.27 0  0.24 0.27 0  0.255 0.27 0  0.27 0.27 0  0.285 0.27 0  0.3 0.27 0  0 0.285 0  0.015 0.285 0  0.03 0.285 0  0.045 0.285 0  0.06 0.285 0  0.075 0.285 0  0.09 0.285 0  0.105 0.285 0  0.12 0.285 0  0.135 0.285 0  0.15 0.285 0  0.165 0.285 0  0.18 0.285 0  0.195 0.285 0  0.21 0.285 0  0.225 0.285 0  0.24 0.285 0  0.255 0.285 0  0.27 0.285 0  0.285 0.285 0  0.3 0.285 0  0 0.3 0  0.015 0.3 0  0.03 0.3 0  0.045 0.3 0  0.06 0.3 0  0.075 0.3 0  0.09 0.3 0  0.105 0.3 0  0.12 0.3 0  0.135 0.3 0  0.15 0.3 0  0.165 0.3 0  0.18 0.3 0  0.195 0.3 0  0.21 0.3 0  0.225 0.3 0  0.24 0.3 0  0.255 0.3 0  0.27 0.3 0  0.285 0.3 0  0.3 0.3 0  0 0 0.00075  0.015 0 0.00075  0.03 0 0.00075  0.045 0 0.00075  0.06 0 0.00075  0.075 0 0.00075  0.09 0 0.00075  0.105 0 0.00075  0.12 0 0.00075  0.135 0 0.00075  0.15 0 0.00075  0.165 0 0.00075  0.18 0 0.00075  0.195 0 0.00075  0.21 0 0.00075  0.225 0 0.00075  0.24 0 0.00075  0.255 0 0.00075  0.27 0 0.00075  0.285 0 0.00075  0.3 0 0.00075  0 0.015 0.00075  0.015 0.015 0.00075  0.03 0.015 0.00075  0.045 0.015 0.00075  0.06 0.015 0.00075  0.075 0.015 0.00075  0.09 0.015 0.00075  0.105 0.015 0.00075  0.12 0.015 0.00075  0.135 0.015 0.00075  0.15 0.015 0.00075  0.165 0.015 0.00075  0.18 0.015 0.00075  0.195 0.015 0.00075  0.21 0.015 0.00075  0.225 0.015 0.00075  0.24 0.015 0.00075  0.255 0.015 0.00075  0.27 0.015 0.00075  0.285 0.015 0.00075  0.3 0.015 0.00075  0 0.03 0.00075  0.015 0.03 0.00075  0.03 0.03 0.00075  0.045 0.03 0.00075  0.06 0.03 0.00075  0.075 0.03 0.00075  0.09 0.03 0.00075  0.105 0.03 0.00075  0.12 0.03 0.00075  0.135 0.03 0.00075  0.15 0.03 0.00075  0.165 0.03 0.00075  0.18 0.03 0.00075  0.195 0.03 0.00075  0.21 0.03 0.00075  0.225 0.03 0.00075  0.24 0.03 0.00075  0.255 0.03 0.00075  0.27 0.03 0.00075  0.285 0.03 0.00075  0.3 0.03 0.00075  0 0.045 0.00075  0.015 0.045 0.00075  0.03 0.045 0.00075  0.045 0.045 0.00075  0.06 0.045 0.00075  0.075 0.045 0.00075  0.09 0.045 0.00075  0.105 0.045 0.00075  0.12 0.045 0.00075  0.135 0.045 0.00075  0.15 0.045 0.00075  0.165 0.045 0.00075  0.18 0.045 0.00075  0.195 0.045 0.00075  0.21 0.045 0.00075  0.225 0.045 0.00075  0.24 0.045 0.00075  0.255 0.045 0.00075  0.27 0.045 0.00075  0.285 0.045 0.00075  0.3 0.045 0.00075  0 0.06 0.00075  0.015 0.06 0.00075  0.03 0.06 0.00075  0.045 0.06 0.00075  0.06 0.06 0.00075  0.075 0.06 0.00075  0.09 0.06 0.00075  0.105 0.06 0.00075  0.12 0.06 0.00075  0.135 0.06 0.00075  0.15 0.06 0.00075  0.165 0.06 0.00075  0.18 0.06 0.00075  0.195 0.06 0.00075  0.21 0.06 0.00075  0.225 0.06 0.00075  0.24 0.06 0.00075  0.255 0.06 0.00075  0.27 0.06 0.00075  0.285 0.06 0.00075  0.3 0.06 0.00075  0 0.075 0.00075  0.015 0.075 0.00075  0.03 0.075 0.00075  0.045 0.075 0.00075  0.06 0.075 0.00075  0.075 0.075 0.00075  0.09 0.075 0.00075  0.105 0.075 0.00075  0.12 0.075 0.00075  0.135 0.075 0.00075  0.15 0.075 0.00075  0.165 0.075 0.00075  0.18 0.075 0.00075  0.195 0.075 0.00075  0.21 0.075 0.00075  0.225 0.075 0.00075  0.24 0.075 0.00075  0.255 0.075 0.00075  0.27 0.075 0.00075  0.285 0.075 0.00075  0.3 0.075 0.00075  0 0.09 0.00075  0.015 0.09 0.00075  0.03 0.09 0.00075  0.045 0.09 0.00075  0.06 0.09 0.00075  0.075 0.09 0.00075  0.09 0.09 0.00075  0.105 0.09 0.00075  0.12 0.09 0.00075  0.135 0.09 0.00075  0.15 0.09 0.00075  0.165 0.09 0.00075  0.18 0.09 0.00075  0.195 0.09 0.00075  0.21 0.09 0.00075  0.225 0.09 0.00075  0.24 0.09 0.00075  0.255 0.09 0.00075  0.27 0.09 0.00075  0.285 0.09 0.00075  0.3 0.09 0.00075  0 0.105 0.00075  0.015 0.105 0.00075  0.03 0.105 0.00075  0.045 0.105 0.00075  0.06 0.105 0.00075  0.075 0.105 0.00075  0.09 0.105 0.00075  0.105 0.105 0.00075  0.12 0.105 0.00075  0.135 0.105 0.00075  0.15 0.105 0.00075  0.165 0.105 0.00075  0.18 0.105 0.00075  0.195 0.105 0.00075  0.21 0.105 0.00075  0.225 0.105 0.00075  0.24 0.105 0.00075  0.255 0.105 0.00075  0.27 0.105 0.00075  0.285 0.105 0.00075  0.3 0.105 0.00075  0 0.12 0.00075  0.015 0.12 0.00075  0.03 0.12 0.00075  0.045 0.12 0.00075  0.06 0.12 0.00075  0.075 0.12 0.00075  0.09 0.12 0.00075  0.105 0.12 0.00075  0.12 0.12 0.00075  0.135 0.12 0.00075  0.15 0.12 0.00075  0.165 0.12 0.00075  0.18 0.12 0.00075  0.195 0.12 0.00075  0.21 0.12 0.00075  0.225 0.12 0.00075  0.24 0.12 0.00075  0.255 0.12 0.00075  0.27 0.12 0.00075  0.285 0.12 0.00075  0.3 0.12 0.00075  0 0.135 0.00075  0.015 0.135 0.00075  0.03 0.135 0.00075  0.045 0.135 0.00075  0.06 0.135 0.00075  0.075 0.135 0.00075  0.09 0.1
[...]
<PointData  Vectors="f_205"> 
<DataArray  type="Float64"  Name="f_205"  NumberOfComponents="3" format="ascii">-2.4206392565109429e+01 -4.8305388670607584e+01 -1.9084227440782284e+00  -2.0034223546147320e+01 -4.6863710232852490e+01 -1.9366802430018211e+00  -1.5881900786891462e+01 -4.5364270987870391e+01 -1.9366646029217531e+00  -1.1806254998111914e+01 -4.3768901956123798e+01 -1.9169213703219299e+00  -7.8544968411816649e+00 -4.2073589413456972e+01 -1.8849969712795642e+00  -4.0563033821427990e+00 -4.0288287965488053e+01 -1.8461643440954494e+00  -4.2607888185114956e-01 -3.8422866712486758e+01 -1.8030868104846143e+00  3.0299591129613241e+00 -3.6480159418818261e+01 -1.7559733413288352e+00  6.3057913578392029e+00 -3.4454968818235884e+01 -1.7030092937071568e+00  9.3891036380201562e+00 -3.2337732529273090e+01 -1.6411850530336412e+00  1.2258436468462092e+01 -3.0121258299381957e+01 -1.5676337022087428e+00  1.4885434886810279e+01 -2.7807683783917774e+01 -1.4810202955868716e+00  1.7241246801467717e+01 -2.5412173702064585e+01 -1.3821202474635945e+00  1.9303584137227347e+01 -2.2961764038014248e+01 -1.2732395490097412e+00  2.1061057497842967e+01 -2.0491052223735874e+01 -1.1571566569931162e+00  2.2514431000126788e+01 -1.8038156051315060e+01 -1.0367002845071498e+00  2.3677538665704454e+01 -1.5642545432823407e+01 -9.1553035802539573e-01  2.4580914094622468e+01 -1.3342530915776640e+01 -7.9973368576354686e-01  2.5277998114262076e+01 -1.1167301344951202e+01 -6.9911053358159791e-01  2.5848761472568629e+01 -9.1191904388142166e+00 -6.2668524974529294e-01  2.6391516601782161e+01 -7.1526057090102322e+00 -5.9549022892399250e-01  -2.5665811795586855e+01 -4.4148604038434378e+01 -1.8797341264539278e+00  -2.1517673329932645e+01 -4.2759439810421050e+01 -1.9150135955138556e+00  -1.7412665681106333e+01 -4.1359489524151101e+01 -1.9191757393924351e+00  -1.3401382334135114e+01 -3.9896884613721696e+01 -1.9001743065774697e+00  -9.5209635315600103e+00 -3.8354587231189598e+01 -1.8667284698036688e+00  -5.7952083852289267e+00 -3.6732649078951042e+01 -1.8252494524174638e+00  -2.2374768721515306e+00 -3.5035595339057096e+01 -1.7791934871120627e+00  1.1443634292542051e+00 -3.3265527428698547e+01 -1.7292022056581580e+00  4.3427296700440134e+00 -3.1420276198418573e+01 -1.6736226874544269e+00  7.3461331135689418e+00 -2.9495341434813721e+01 -1.6093908752595354e+00  1.0137329014283067e+01 -2.7488096612699618e+01 -1.5333945146037393e+00  1.2694855091380250e+01 -2.5402280084384490e+01 -1.4439607784697048e+00  1.4997454801663755e+01 -2.3250642709073304e+01 -1.3416272163647445e+00  1.7029061271785700e+01 -2.1054703941942137e+01 -1.2287160664764230e+00  1.8781907034745327e+01 -1.8842231691408511e+01 -1.1082641385556871e+00  2.0257387322609308e+01 -1.6644157457195451e+01 -9.8347313748494225e-01  2.1466534227772460e+01 -1.4491714217438153e+01 -8.5839510286933929e-01  2.2432347421673654e+01 -1.2412403535895507e+01 -7.3952360691214136e-01  2.3194385763297426e+01 -1.0421714493380662e+01 -6.3704642872626827e-01  2.3813479433506490e+01 -8.5079959689756066e+00 -5.6396135908498946e-01  2.4375588650769306e+01 -6.6103958672523193e+00 -5.2826014849850522e-01  -2.7081872319667706e+01 -3.9957636275099077e+01 -1.8500758238707871e+00  -2.2951721142588919e+01 -3.8649213125546780e+01 -1.8891570977598784e+00  -1.8867400951834682e+01 -3.7353391669412382e+01 -1.8970466699314226e+00  -1.4887843258060121e+01 -3.6021993106608875e+01 -1.8785278478605907e+00  -1.1049281716883858e+01 -3.4631002444942368e+01 -1.8431385344562052e+00  -7.3726625583405143e+00 -3.3172606111545669e+01 -1.7982688603897143e+00  -3.8691056063896614e+00 -3.1646113672480503e+01 -1.7480789873350078e+00  -5.4518807154709503e-01 -3.0052209257831411e+01 -1.6936600001695952e+00  2.5925923714490717e+00 -2.8390750535040564e+01 -1.6336919040787135e+00  5.5346158836539807e+00 -2.6661285605233832e+01 -1.5653943169995452e+00  8.2668215354339711e+00 -2.4865100345033422e+01 -1.4858248456658536e+00  1.0771946414689539e+01 -2.3007546677512359e+01 -1.3932736650061435e+00  1.3032963909251523e+01 -2.1099523226588314e+01 -1.2880586285154223e+00  1.5036956492111900e+01 -1.9157625833236967e+01 -1.1722641570020513e+00  1.6777434879424629e+01 -1.7202888523130607e+01 -1.0488430436990526e+00  1.8254836625085158e+01 -1.5258662061034448e+01 -9.2115410992896363e-01  1.9476952833094533e+01 -1.3347724712015559e+01 -7.9366363551514107e-01  2.0461540891677139e+01 -1.1487823114800340e+01 -6.7352286625783098e-01  2.1241923295616456e+01 -9.6842587430520002e+00 -5.7174799572921398e-01  2.1874343660838765e+01 -7.9187439536932578e+00 -5.0200640818608666e-01  2.2447785982045911e+01 -6.1351183470423134e+00 -4.7031129399184674e-01  -2.8396036763688201e+01 -3.5727315059994154e+01 -1.8227983842605415e+00  -2.4281436031799529e+01 -3.4530340492464290e+01 -1.8640093174462102e+00  -2.0209066172306169e+01 -3.3353742570981993e+01 -1.8740102862855683e+00  -1.6245486378071902e+01 -3.2158037681442025e+01 -1.8557237854132000e+00  -1.2430470582334024e+01 -3.0919048374786975e+01 -1.8185107866763670e+00  -8.7851887726659577e+00 -2.9625052293388244e+01 -1.7701967847929390e+00  -5.3196684616677912e+00 -2.8271814930665386e+01 -1.7154276269265132e+00  -2.0390921766186043e+00 -2.6858608101473234e+01 -1.6557680710320148e+00  1.0515924868416127e+00 -2.5386203731704903e+01 -1.5904359308751010e+00  3.9447968732359939e+00 -2.3856533734048579e+01 -1.5172616751877834e+00  6.6292182184303918e+00 -2.2273266558697102e+01 -1.4338254357250959e+00  9.0908223740243521e+00 -2.0642631949075305e+01 -1.3386145059573329e+00  1.1315507955703648e+01 -1.8973948861932605e+01 -1.2317223547209670e+00  1.3292165235381674e+01 -1.7279863024956938e+01 -1.1147642838220662e+00  1.5014534024020637e+01 -1.5575712079693988e+01 -9.9028090283790027e-01  1.6481732815338596e+01 -1.3878117701177000e+01 -8.6150357867780436e-01  1.7699110373713545e+01 -1.2202505064017894e+01 -7.3310637673655199e-01  1.8681603359466830e+01 -1.0559117882902925e+01 -6.1269892449072716e-01  1.9460446283097593e+01 -8.9472059031824482e+00 -5.1185713559211377e-01  2.0092026652774226e+01 -7.3477909330790245e+00 -4.4464612726824204e-01  2.0669153480958606e+01 -5.7168192848193504e+00 -4.1589670327897049e-01  -2.9573615109891950e+01 -3.1463606670499775e+01 -1.7995420239315998e+00  -2.5472406280486318e+01 -3.0402599825365954e+01 -1.8417141899764882e+00  -2.1408723753477190e+01 -2.9361689653006081e+01 -1.8524966717237970e+00  -1.7454367613835476e+01 -2.8310379525157117e+01 -1.8337540188016979e+00  -1.3653001266293844e+01 -2.7227478523842478e+01 -1.7945796605691109e+00  -1.0027598706987717e+01 -2.6100649721293188e+01 -1.7428792515379081e+00  -6.5884005289802863e+00 -2.4924050374698446e+01 -1.6835639037624508e+00  -3.3399411682889926e+00 -2.3695990500476064e+01 -1.6185967384048350e+00  -2.8599900290742247e-01 -2.2417412926746351e+01 -1.5477578815914352e+00  2.5675672678662131e+00 -2.1091205228115577e+01 -1.4695744485763946e+00  5.2118157627634885e+00 -1.9721958459716429e+01 -1.3822699260779951e+00  7.6354387839804749e+00 -1.8315939069255617e+01 -1.2846490107720405e+00  9.8267143274172586e+00 -1.6880941130522366e+01 -1.1766409837189029e+00  1.1775896459352079e+01 -1.5426588721318803e+01 -1.0593667954782959e+00  1.3476756445878124e+01 -1.3963823045876843e+01 -9.3484116437499754e-01  1.4927342070151232e+01 -1.2503955739393220e+01 -8.0600972477455723e-01  1.6131459391228560e+01 -1.1056751783515919e+01 -6.7758257266808919e-01  1.7102810745784819e+01 -9.6273145964878335e+00 -5.5743234614005033e-01  1.7872458675565650e+01 -8.2119914892278256e+00 -4.5744613897225322e-01  1.8498179717062094e+01 -6.7942237004823349e+00 -3.9181336624432911e-01  1.9075284305282270e+01 -5.3425474263683732e+00 -3.6460450190290933e-01  -3.0593544598566876e+01 -2.7174903673719609e+01 -1.7811524596622301e+00  -2.6503612993185818e+01 -2.6267815889800257e+01 -1.8234599771054294e+00  -2.2447079365855394e+01 -2.5377161983027921e+01 -1.8340823645504385e+00  -1.8499116718963265e+01 -2.4480124166111427e+01 -1.8142518124320421e+00  -1.4706553776736017e+01 -2.3559458368608535e+01 -1.7728910991251028e+00  -1.1094474978843937e+01 -2.2604035119264946e+01 -1.7178964878700473e+00  -7.6740568423957862e+00 -2.1607860840923983e+01 -1.6543166663780682e+00  -4.4498587452841818e+00 -2.0568826836193029e+01 -1.5844142485055412e+00  -1.4250017443695564e+00 -1.9487685820428517e+01 -1.5084511827102189e+00  1.3959537795964254e+00 -1.8367344182428841e+01 -1.4255801549276919e+00  4.0059800893819979e+00 -1.7212278620235001e+01 -1.3346262354629101e+00  6.3960618245317686e+00 -1.6028168405855734e+01 -1.2347283338683950e+00  8.5564812974176405e+00 -1.4821230652994270e+01 -1.1257052266733074e+00  1.0478728710423928e+01 -1.3598859300207648e+01 -1.0082777763625634e+00  1.2156772296731218e+01 -1.2368777311655533e+01 -8.8398187443592358e-01  1.3588052237670563e+01 -1.1138419779584916e+01 -7.5544778504832255e-01  1.4775571236445922e+01 -9.9135822896304404e+00 -6.2731905498442120e-01  1.5732677240806780e+01 -8.6962119821710235e+00 -5.0757328336128626e-01  1.6490942850368707e+01 -7.4817836304361416e+00 -4.0821491995673370e-01  1.7109459845938972e+01 -6.2572629233423980e+00 -3.4338055787305116e-01  1.7684636635236235e+01 -5.0016554550692742e+00 -3.1662457515301867e-01  -3.1442936944198657e+01 -2.2868661537305798e+01 -1.7681334741648120e+00  -2.7362205946916042e+01 -2.2128282378307492e+01 -1.8100174059750915e+00  -2.3311779318420143e+01 -2.1399748089846117e+01 -1.8198654800925260e+00  -1.9369012829932679e+01 -2.0666269246676553e+01 -1.7985054799942797e+00  -1.5583082339539533e+01 -1.9914497410110954e+01 -1.7547904576054076e+00  -1.1980929190616305e+01 -1.9135282448266217e+01 -1.6966193339791704e+00  -8.5748373984858564e+00 -1.8323315747570959e+01 -1.6291301736301134e+00  -5.3697321013120352e+00 -1.7476489332866397e+01 -1.5548034906549453e+00  -2.3684346614475604e+00 -1.6595240988898325e+01 -1.4742710601883089e+00  4.2541820872545200e-01 -1.5681986852727638e+01 -1.3871831673749628e+00  3.0062513418033738e+00 -1.4740495173762042e+01 -1.2928687747736167e+00  5.3669053929500468e+00 -1.3775562336272623e+01 -1.1907883668983132e+00  7.4992647213521559e+00 -1.2791702312777145e+01 -1.0806491519520069e+00  9.3959985135815725e+00 -1.1794814377836891e+01 -9.6289564083205437e-01  1.1051519957446970e+01 -1.0790293414261592e+01 -8.3869138495751749e-01  1.2463109792880971e+01 -9.7828569053037224e+00 -7.1039414388294297e-01  1.3633494135596207e+01 -8.7757195315907186e+00 -5.8253886253630627e-01  1.4576093309811100e+01 -7.7691438577181309e+00 -4.6309989884957531e-01  1.5323086438533863e+01 -6.7589058025763809e+00 -3.6406576747152558e-01  1.5934425115718412e+01 -5.7355411441903552e+00 -2.9942535207168025e-01  1.6506629552019845e+01 -4.6859463073258425e+00 -2.7237450036370092e-01  -3.2113532021095637e+01 -1.8550343380783826e+01 -1.7607796200245576e+00  -2.8040042549125161e+01 -1.7985864093007510e+01 -1.8018912258751321e+00  -2.3994829738429697e+01 -1.7428665587121856e+01 -1.8106095622785587e+00  -2.0056747246902340e+01 -1.6866618409503264e+01 -1.7874815275139524e+00  -1.6276633456380146e+01 -1.6289882499146380e+01 -1.7413625867805507e+00  -1.2682853255111917e+01 -1.5691499057103943e+01 -1.6801827272754326e+00  -9.2886525526789221e+00 -1.5067232422560618e+01 -1.6091476198973518e+00  -6.0993774931892881e+00 -1.4415225685624534e+01 -1.5308853341092981e+00  -3.1177208816246238e+00 -1.3735590933129087e+01 -1.4462848604622787e+00  -3.4659812336162027e-01 -1.3029968833549706e+01 -1.3553528413773273e+00  2.2094423812500708e+00 -1.2301083301088530e+01 -1.2578285384320578e+00  4.5446500546246718e+00 -1.1552860664812282e+01 -1.1535992526952601e+00  6.6519791511573150e+00 -1.0787871894870873e+01 -1.0421806250068060e+00  8.5252768628838638e+00 -1.0011430687191211e+01 -9.2384789103953313e-01  1.0159647511688339e+01 -9.2271258954835869e+00 -7.9946229342176678e-01  1.1552542348024934e+01 -8.4377493823209448e+00 -6.7116758228096729e-01  1.2706727208519951e+01 -7.6449430223301258e+00 -5.4338772568939864e-01  1.3635849189164883e+01 -6.8482848335483908e+00 -4.2403450635245477e-01  1.4372556589530360e+01 -6.0444670340371776e+00 -3.2500394292115953e-01  1.4977198955457457e+01 -5.2272210813621944e+00 -2.6009876627434469e-01  1.5545843544026921e+01 -4.3891507469691424e+00 -2.3226266953790078e-01  -3.2599232725261380e+01 -1.4223650132380504e+01 -1.7591267991842765e+00  -2.8531375374526572e+01 -1.3841836290709825e+01 -1.7992706111306236e+00  -2.4490692101026870e+01 -1.3462800395697245e+01 -1.8066841300426439e+00  -2.0557172260491100e+01 -1.3078272412841430e+01 -1.7817191330740088e+00  -1.6782794642181667e+01 -1.2681553638068230e+01 -1.7332853369288599e+00  -1.3196902560730926e+01 -1.2267869956597087e+01 -1.6693710939726694e+00  -9.8134249634637989e+00 -1.1834225905511589e+01 -1.5952350873710524e+00  -6.6380214269960796e+00 -1.1379188492396809e+01 -1.5135789767849974e+00  -3.6732918866675495e+00 -1.0902619579098712e+01 -1.4254150526028166e+00  -9.2154594290640812e-01 -1.0405301899829199e+01 -1.3309582931402169e+00  1.6136549678479415e+00 -9.8884485429681490e+00 -1.2300539222538669e+00  3.9275450884853282e+00 -9.3549642069338432e+00 -1.1234590991886573e+00  6.0129310811933845e+00 -8.8053069146325420e+00 -1.0104317787862709e+00  7.8651355505424601e+00 -8.2456625557011680e+00 -8.9127934454283342e-01  9.4803215209345204e+00 -7.6778234416197053e+00 -7.6644814335856426e-01  1.0856291361702635e+01 -7.1030969663357437e+00 -6.3788863430596243e-01  1.1995966449342093e+01 -6.5222308636305444e+00 -5.0993041305964559e-01  1.2913200609452636e+01 -5.9347607525078718e+00 -3.9040057419071789e-01  1.3640897657621498e+01 -5.3385920460562843e+00 -2.9106985181289957e-01  1.4239448440094675e+01 -4.7302107632592314e+00 -2.2555146872900650e-01  1.4804210868615970e+01 -4.1063598968799360e+00 -1.9661234406122444e-01  -3.2894718236468179e+01 -9.8916896127240843e+00 -1.7629024498929944e+00  -2.8831526136117660e+01 -9.6974650986317901e+00 -1.8019502991762926e+00  -2.4795090801738198e+01 -9.5012977258965208e+00 -1.8079406099245325e+00  -2.0866364152518276e+01 -9.2984966850537916e+00 -1.7811196952269226e+00  -1.7098108280162926e+01 -9.0852625272349492e+00 -1.7304945759140875e+00  -1.3520276249205278e+01 -8.8589127097506815e+00 -1.6641518106903734e+00  -1.0147186868133703e+01 -8.6177200225079424e+00 -1.5874299263247762e+00  -6.9846223130045093e+00 -8.3607923803064104e+00 -1.5030959497646101e+00  -4.0349915945291155e+00 -8.0879607925600379e+00 -1.4121985047017389e+00  -1.3001738828061928e+00 -7.7995842996533442e+00 -1.3149218565414791e+00  1.2165661178294258e+00 -7.4963905670099358e+00 -1.2111366710725369e+00  3.5146858703100903e+00 -7.1764388797953034e+00 -1.1015428745580644e+00  5.5813472392724037e+00 -6.8398189423656213e+00 -9.8557879872582543e-01  7.4145319127090241e+00 -6.4948526971481018e+00 -8.6519047941175253e-01  9.0126710622410968e+00 -6.1411200160284016e+00 -7.3965548595485786e-01  1.0373890573434846e+01 -5.7787408366598729e+00 -6.1057556384314116e-01  1.1501143778340568e+01 -5.4080525122646170e+00 -4.8218326917320237e-01  1.2408330468868739e+01 -5.0289657028326173e+00 -3.6221512385995946e-01  1.3128373125027045e+01 -4.6407505685059229e+00 -2.6231000346813765e-01  1.3721454780632504e+01 -4.2423117116397266e+00 -1.9590767278496729e-01  1.4282164318804933e+01 -3.8335539030562096e+00 -1.6565640687811856e-01  -3.2995480250723745e+01 -5.5582912457263758e+00 -1.7717163941165350e+00  -2.8936652347346413e+01 -5.5548341184382952e+00 -1.8095101497166766e+00  -2.4904609483701687e+01 -5.5444614057882147e+00 -1.8138951282421676e+00  -2.0981157036519491e+01 -5.5260163351368936e+00 -1.7850965151443849e+00  -1.7219617821948326e+01 -5.4984668235656393e+00 -1.7322327131140731e+00  -1.3650300660700772e+01 -5.4610754519483207e+00 -1.6635082477191387e+00  -1.0287715670434022e+01 -5.4132302192281925e+00 -1.5843727244715227e+00  -7.1376711414354261e+00 -5.3544009190652657e+00 -1.4977156132970166e+00  -4.2023635630390244e+00 -5.2841691467629808e+00 -1.4047388171614554e+00  -1.4831115867455156e+00 -5.2022579154369692e+00 -1.3057934745880277e+00  1.0186129263369370e+00 -5.1085485311189762e+00 -1.2008941163302276e+00  3.3028594336963124e+00 -5.0034710306219186e+00 -1.0912292271442099e+00  5.3562035661802803e+00 -4.8862647986764651e+00 -9.6821736535905734e-01  7.1718847945316426e+00 -4.7567722878084373e+00 -8.4562839307837012e-01  8.7552586408997115e+00 -4.6161519405381828e+00 -7.1905509039895477e-01  1.0104288796117938e+01 -4.4646239955885321e+00 -5.8920776016865806e-01  1.1221531275318117e+01 -4.3026684403014412e+00 -4.6014210255001486e-01  1.2120682879676123e+01 -4.1308903526160581e+00 -3.3949078009488737e-01  1.2834465631263861e+01 -3.9500423252428778e+00 -2.3876540226119758e-01  1.3422694087622070e+01 -3.7612890563283718e+00 -1.7125803527948447e-01  1.3979243543481505e+01 -3.5672295951220043e+00 -1.3954962417229991e-01  -3.2898940703841362e+01 -1.2281999569259339e+00 -1.7854311958913838e+00  -2.8844413521730360e+01 -1.4168743615776662e+00 -1.8217566374186296e+00  -2.4817077820942380e+01 -1.5937442186607662e+00 -1.8242997222312760e+00  -2.0899419180360944e+01 -1.7611657944177390e+00 -1.7933186029132886e+00  -1.7145103669910814e+01 -1.9208745076263201e+00 -1.7380232896788641e+00  -1.3584533489394621e+01 -2.0740197171217813e+00 -1.6667062349921065e+00  -1.0232155627258868e+01 -2.2210191875580376e+00 -1.5848783139456324e+00  -7.0936091823948697e+00 -2.3616334485018182e+00 -1.4954615990854256e+00  -4.1708401148610506e+00 -2.4951624253339988e+00 -1.3996597793010701e+00  -1.4649423682212306e+00 -2.6206556013172704e+00 -1.2977693521352840e+00  1.0225262086951481e+00 -2.7371765408568716e+00 -1.1897432673956776e+00  3.2885997623120109e+00 -2.8438325763980004e+00 -1.0755694433575893e+00  5.3276739645797262e+00 -2.9438712909895179e+00 -9.5530084806333126e-01  7.1316812005973222e+00 -3.0310790333799860e+00 -8.3204748056745759e-01  8.7053195834147914e+00 -3.1030067327514050e+00 -7.0451930572272270e-01  1.0045876484383014e+01 -3.1611062273881481e+00 -5.7374995830526232e-01  1.1155963679629423e+01 -3.2064096199186789e+00 -4.4380397786190928e-01  1.2049240994878906e+01 -3.2403975162883478e+00 -3.2224241545231463e-01  1.2758176523105963e+01 -3.2654031352069879e+00 -2.2046843844206457e-01  1.3342139822491665e+01 -3.2848753766067937e+00 -1.5165804144230643e-01  1.3894397925297373e+01 -3.3040799621819623e+00 -1.1837863474107951e-01  -3.2605152805931027e+01 3.0940164752483481e+00 -1.8042934699122510e+00  -2.8554552150107639e+01 2.7136363777648365e+00 -1.8389407611840565e+00  -2.4532114831603096e+01 2.3495832439936692e+00 -1.8394586659591317e+00  -2.0620768278777209e+01 1.9959163876613550e+00 -1.8061716897435425e+00  -1.6874271867555994e+01 1.6480335691528440e+00 -1.7483791577429477e+00  -1.3322902274153048e+01 1.3029246333730480e+00 -1.6744591379997573e+00  -9.9809079447616877e+00 9.5924813950346055e-01 -1.5899928847959577e+00  -6.8537460901532317e+00 6.1706145380772803e-01 -1.4979663438951951e+00  -3.9432336877963401e+00 2.7740814930214674e-01 -1.3996634395980057e+00  -1.2503933113325729e+00 -5.8087595414451007e-02 -1.2955101704290153e+00  1.2232384859713112e+00 -3.8756909452287347e-01 -1.1856490192475426e+00  3.4750961174415367e+00 -7.0924287301491884e-01 -1.0703122541851171e+00  5.5013768643701857e+00 -1.0223449428457347e+00 -9.4994771077443763e-01  7.2981490743620165e+00 -1.3203827410830675e+00 -8.2558235236485467e-01  8.8643979135781379e+00 -1.6027503159326866e+00 -6.9644552854631903e-01  1.0198577989445850e+01 -1.8689401721959666e+00 -5.6434080364565342e-01  1.1303586488065854e+01 -2.1197552241823945e+00 -4.3322342191126378e-01  1.2192804352636408e+01 -2.3573684129103718e+00 -3.1049999991124022e-01  1.2898148750944634e+01 -2.5857172603423355e+00 -2.0744192613106008e-01  1.3478335645393591e+01 -2.8107201127532040e+00 -1.3712597559658632e-01  1.4026051331927537e+01 -3.0406792312818540e+00 -1.0216524387620468e-01  -3.2116024231064408e+01 7.4048669227222881e+00 -1.8286818041824062e+00  -2.8068413011462766e+01 6.8349061849702899e+00 -1.8614