<?xml version="1.0"?>
<VTKFile type="UnstructuredGrid"  version="0.1"  >
<UnstructuredGrid>
<Piece  NumberOfPoints="9261" NumberOfCells="48000">
<Points>
<DataArray  type="Float64"  NumberOfComponents="3"  format="ascii">0 0 0  0.015 0 0  0.03 0 0  0.045 0 0  0.06 0 0  0.075 0 0  0.09 0 0  0.105 0 0  0.12 0 0  0.135 0 0  0.15 0 0  0.165 0 0  0.18 0 0  0.195 0 0  0.21 0 0  0.225 0 0  0.24 0 0  0.255 0 0  0.27 0 0  0.285 0 0  0.3 0 0  0 0.015 0  0.015 0.015 0  0.03 0.015 0  0.045 0.015 0  0.06 0.015 0  0.075 0.015 0  0.09 0.015 0  0.105 0.015 0  0.12 0.015 0  0.135 0.015 0  0.15 0.015 0  0.165 0.015 0  0.18 0.015 0  0.195 0.015 0  0.21 0.015 0  0.225 0.015 0  0.24 0.015 0  0.255 0.015 0  0.27 0.015 0  0.285 0.015 0  0.3 0.015 0  0 0.03 0  0.015 0.03 0  0.03 0.03 0  0.045 0.03 0  0.06 0.03 0  0.075 0.03 0  0.09 0.03 0  0.105 0.03 0  0.12 0.03 0  0.135 0.03 0  0.15 0.03 0  0.165 0.03 0  0.18 0.03 0  0.195 0.03 0  0.21 0.03 0  0.225 0.03 0  0.24 0.03 0  0.255 0.03 0  0.27 0.03 0  0.285 0.03 0  0.3 0.03 0  0 0.045 0  0.015 0.045 0  0.03 0.045 0  0.045 0.045 0  0.06 0.045 0  0.075 0.045 0  0.09 0.045 0  0.105 0.045 0  0.12 0.045 0  0.135 0.045 0  0.15 0.045 0  0.165 0.045 0  0.18 0.045 0  0.195 0.045 0  0.21 0.045 0  0.225 0.045 0  0.24 0.045 0  0.255 0.045 0  0.27 0.045 0  0.285 0.045 0  0.3 0.045 0  0 0.06 0  0.015 0.06 0  0.03 0.06 0  0.045 0.06 0  0.06 0.06 0  0.075 0.06 0  0.09 0.06 0  0.105 0.06 0  0.12 0.06 0  0.135 0.06 0  0.15 0.06 0  0.165 0.06 0  0.18 0.06 0  0.195 0.06 0  0.21 0.06 0  0.225 0.06 0  0.24 0.06 0  0.255 0.06 0  0.27 0.06 0  0.285 0.06 0  0.3 0.06 0  0 0.075 0  0.015 0.075 0  0.03 0.075 0  0.045 0.075 0  0.06 0.075 0  0.075 0.075 0  0.09 0.075 0  0.105 0.075 0  0.12 0.075 0  0.135 0.075 0  0.15 0.075 0  0.165 0.075 0  0.18 0.075 0  0.195 0.075 0  0.21 0.075 0  0.225 0.075 0  0.24 0.075 0  0.255 0.075 0  0.27 0.075 0  0.285 0.075 0  0.3 0.075 0  0 0.09 0  0.015 0.09 0  0.03 0.09 0  0.045 0.09 0  0.06 0.09 0  0.075 0.09 0  0.09 0.09 0  0.105 0.09 0  0.12 0.09 0  0.135 0.09 0  0.15 0.09 0  0.165 0.09 0  0.18 0.09 0  0.195 0.09 0  0.21 0.09 0  0.225 0.09 0  0.24 0.09 0  0.255 0.09 0  0.27 0.09 0  0.285 0.09 0  0.3 0.09 0  0 0.105 0  0.015 0.105 0  0.03 0.105 0  0.045 0.105 0  0.06 0.105 0  0.075 0.105 0  0.09 0.105 0  0.105 0.105 0  0.12 0.105 0  0.135 0.105 0  0.15 0.105 0  0.165 0.105 0  0.18 0.105 0  0.195 0.105 0  0.21 0.105 0  0.225 0.105 0  0.24 0.105 0  0.255 0.105 0  0.27 0.105 0  0.285 0.105 0  0.3 0.105 0  0 0.12 0  0.015 0.12 0  0.03 0.12 0  0.045 0.12 0  0.06 0.12 0  0.075 0.12 0  0.09 0.12 0  0.105 0.12 0  0.12 0.12 0  0.135 0.12 0  0.15 0.12 0  0.165 0.12 0  0.18 0.12 0  0.195 0.12 0  0.21 0.12 0  0.225 0.12 0  0.24 0.12 0  0.255 0.12 0  0.27 0.12 0  0.285 0.12 0  0.3 0.12 0  0 0.135 0  0.015 0.135 0  0.03 0.135 0  0.045 0.135 0  0.06 0.135 0  0.075 0.135 0  0.09 0.135 0  0.105 0.135 0  0.12 0.135 0  0.135 0.135 0  0.15 0.135 0  0.165 0.135 0  0.18 0.135 0  0.195 0.135 0  0.21 0.135 0  0.225 0.135 0  0.24 0.135 0  0.255 0.135 0  0.27 0.135 0  0.285 0.135 0  0.3 0.135 0  0 0.15 0  0.015 0.15 0  0.03 0.15 0  0.045 0.15 0  0.06 0.15 0  0.075 0.15 0  0.09 0.15 0  0.105 0.15 0  0.12 0.15 0  0.135 0.15 0  0.15 0.15 0  0.165 0.15 0  0.18 0.15 0  0.195 0.15 0  0.21 0.15 0  0.225 0.15 0  0.24 0.15 0  0.255 0.15 0  0.27 0.15 0  0.285 0.15 0  0.3 0.15 0  0 0.165 0  0.015 0.165 0  0.03 0.165 0  0.045 0.165 0  0.06 0.165 0  0.075 0.165 0  0.09 0.165 0  0.105 0.165 0  0.12 0.165 0  0.135 0.165 0  0.15 0.165 0  0.165 0.165 0  0.18 0.165 0  0.195 0.165 0  0.21 0.165 0  0.225 0.165 0  0.24 0.165 0  0.255 0.165 0  0.27 0.165 0  0.285 0.165 0  0.3 0.165 0  0 0.18 0  0.015 0.18 0  0.03 0.18 0  0.045 0.18 0  0.06 0.18 0  0.075 0.18 0  0.09 0.18 0  0.105 0.18 0  0.12 0.18 0  0.135 0.18 0  0.15 0.18 0  0.165 0.18 0  0.18 0.18 0  0.195 0.18 0  0.21 0.18 0  0.225 0.18 0  0.24 0.18 0  0.255 0.18 0  0.27 0.18 0  0.285 0.18 0  0.3 0.18 0  0 0.195 0  0.015 0.195 0  0.03 0.195 0  0.045 0.195 0  0.06 0.195 0  0.075 0.195 0  0.09 0.195 0  0.105 0.195 0  0.12 0.195 0  0.135 0.195 0  0.15 0.195 0  0.165 0.195 0  0.18 0.195 0  0.195 0.195 0  0.21 0.195 0  0.225 0.195 0  0.24 0.195 0  0.255 0.195 0  0.27 0.195 0  0.285 0.195 0  0.3 0.195 0  0 0.21 0  0.015 0.21 0  0.03 0.21 0  0.045 0.21 0  0.06 0.21 0  0.075 0.21 0  0.09 0.21 0  0.105 0.21 0  0.12 0.21 0  0.135 0.21 0  0.15 0.21 0  0.165 0.21 0  0.18 0.21 0  0.195 0.21 0  0.21 0.21 0  0.225 0.21 0  0.24 0.21 0  0.255 0.21 0  0.27 0.21 0  0.285 0.21 0  0.3 0.21 0  0 0.225 0  0.015 0.225 0  0.03 0.225 0  0.045 0.225 0  0.06 0.225 0  0.075 0.225 0  0.09 0.225 0  0.105 0.225 0  0.12 0.225 0  0.135 0.225 0  0.15 0.225 0  0.165 0.225 0  0.18 0.225 0  0.195 0.225 0  0.21 0.225 0  0.225 0.225 0  0.24 0.225 0  0.255 0.225 0  0.27 0.225 0  0.285 0.225 0  0.3 0.225 0  0 0.24 0  0.015 0.24 0  0.03 0.24 0  0.045 0.24 0  0.06 0.24 0  0.075 0.24 0  0.09 0.24 0  0.105 0.24 0  0.12 0.24 0  0.135 0.24 0  0.15 0.24 0  0.165 0.24 0  0.18 0.24 0  0.195 0.24 0  0.21 0.24 0  0.225 0.24 0  0.24 0.24 0  0.255 0.24 0  0.27 0.24 0  0.285 0.24 0  0.3 0.24 0  0 0.255 0  0.015 0.255 0  0.03 0.255 0  0.045 0.255 0  0.06 0.255 0  0.075 0.255 0  0.09 0.255 0  0.105 0.255 0  0.12 0.255 0  0.135 0.255 0  0.15 0.255 0  0.165 0.255 0  0.18 0.255 0  0.195 0.255 0  0.21 0.255 0  0.225 0.255 0  0.24 0.255 0  0.255 0.255 0  0.27 0.255 0  0.285 0.255 0  0.3 0.255 0  0 0.27 0  0.015 0.27 0  0.03 0.27 0  0.045 0.27 0  0.06 0.27 0  0.075 0.27 0  0.09 0.27 0  0.105 0.27 0  0.12 0.27 0  0.135 0.27 0  0.15 0.27 0  0.165 0.27 0  0.18 0.27 0  0.195 0.27 0  0.21 0.27 0  0.225 0.27 0  0.24 0.27 0  0.255 0.27 0  0.27 0.27 0  0.285 0.27 0  0.3 0.27 0  0 0.285 0  0.015 0.285 0  0.03 0.285 0  0.045 0.285 0  0.06 0.285 0  0.075 0.285 0  0.09 0.285 0  0.105 0.285 0  0.12 0.285 0  0.135 0.285 0  0.15 0.285 0  0.165 0.285 0  0.18 0.285 0  0.195 0.285 0  0.21 0.285 0  0.225 0.285 0  0.24 0.285 0  0.255 0.285 0  0.27 0.285 0  0.285 0.285 0  0.3 0.285 0  0 0.3 0  0.015 0.3 0  0.03 0.3 0  0.045 0.3 0  0.06 0.3 0  0.075 0.3 0  0.09 0.3 0  0.105 0.3 0  0.12 0.3 0  0.135 0.3 0  0.15 0.3 0  0.165 0.3 0  0.18 0.3 0  0.195 0.3 0  0.21 0.3 0  0.225 0.3 0  0.24 0.3 0  0.255 0.3 0  0.27 0.3 0  0.285 0.3 0  0.3 0.3 0  0 0 0.00075  0.015 0 0.00075  0.03 0 0.00075  0.045 0 0.00075  0.06 0 0.00075  0.075 0 0.00075  0.09 0 0.00075  0.105 0 0.00075  0.12 0 0.00075  0.135 0 0.00075  0.15 0 0.00075  0.165 0 0.00075  0.18 0 0.00075  0.195 0 0.00075  0.21 0 0.00075  0.225 0 0.00075  0.24 0 0.00075  0.255 0 0.00075  0.27 0 0.00075  0.285 0 0.00075  0.3 0 0.00075  0 0.015 0.00075  0.015 0.015 0.00075  0.03 0.015 0.00075  0.045 0.015 0.00075  0.06 0.015 0.00075  0.075 0.015 0.00075  0.09 0.015 0.00075  0.105 0.015 0.00075  0.12 0.015 0.00075  0.135 0.015 0.00075  0.15 0.015 0.00075  0.165 0.015 0.00075  0.18 0.015 0.00075  0.195 0.015 0.00075  0.21 0.015 0.00075  0.225 0.015 0.00075  0.24 0.015 0.00075  0.255 0.015 0.00075  0.27 0.015 0.00075  0.285 0.015 0.00075  0.3 0.015 0.00075  0 0.03 0.00075  0.015 0.03 0.00075  0.03 0.03 0.00075  0.045 0.03 0.00075  0.06 0.03 0.00075  0.075 0.03 0.00075  0.09 0.03 0.00075  0.105 0.03 0.00075  0.12 0.03 0.00075  0.135 0.03 0.00075  0.15 0.03 0.00075  0.165 0.03 0.00075  0.18 0.03 0.00075  0.195 0.03 0.00075  0.21 0.03 0.00075  0.225 0.03 0.00075  0.24 0.03 0.00075  0.255 0.03 0.00075  0.27 0.03 0.00075  0.285 0.03 0.00075  0.3 0.03 0.00075  0 0.045 0.00075  0.015 0.045 0.00075  0.03 0.045 0.00075  0.045 0.045 0.00075  0.06 0.045 0.00075  0.075 0.045 0.00075  0.09 0.045 0.00075  0.105 0.045 0.00075  0.12 0.045 0.00075  0.135 0.045 0.00075  0.15 0.045 0.00075  0.165 0.045 0.00075  0.18 0.045 0.00075  0.195 0.045 0.00075  0.21 0.045 0.00075  0.225 0.045 0.00075  0.24 0.045 0.00075  0.255 0.045 0.00075  0.27 0.045 0.00075  0.285 0.045 0.00075  0.3 0.045 0.00075  0 0.06 0.00075  0.015 0.06 0.00075  0.03 0.06 0.00075  0.045 0.06 0.00075  0.06 0.06 0.00075  0.075 0.06 0.00075  0.09 0.06 0.00075  0.105 0.06 0.00075  0.12 0.06 0.00075  0.135 0.06 0.00075  0.15 0.06 0.00075  0.165 0.06 0.00075  0.18 0.06 0.00075  0.195 0.06 0.00075  0.21 0.06 0.00075  0.225 0.06 0.00075  0.24 0.06 0.00075  0.255 0.06 0.00075  0.27 0.06 0.00075  0.285 0.06 0.00075  0.3 0.06 0.00075  0 0.075 0.00075  0.015 0.075 0.00075  0.03 0.075 0.00075  0.045 0.075 0.00075  0.06 0.075 0.00075  0.075 0.075 0.00075  0.09 0.075 0.00075  0.105 0.075 0.00075  0.12 0.075 0.00075  0.135 0.075 0.00075  0.15 0.075 0.00075  0.165 0.075 0.00075  0.18 0.075 0.00075  0.195 0.075 0.00075  0.21 0.075 0.00075  0.225 0.075 0.00075  0.24 0.075 0.00075  0.255 0.075 0.00075  0.27 0.075 0.00075  0.285 0.075 0.00075  0.3 0.075 0.00075  0 0.09 0.00075  0.015 0.09 0.00075  0.03 0.09 0.00075  0.045 0.09 0.00075  0.06 0.09 0.00075  0.075 0.09 0.00075  0.09 0.09 0.00075  0.105 0.09 0.00075  0.12 0.09 0.00075  0.135 0.09 0.00075  0.15 0.09 0.00075  0.165 0.09 0.00075  0.18 0.09 0.00075  0.195 0.09 0.00075  0.21 0.09 0.00075  0.225 0.09 0.00075  0.24 0.09 0.00075  0.255 0.09 0.00075  0.27 0.09 0.00075  0.285 0.09 0.00075  0.3 0.09 0.00075  0 0.105 0.00075  0.015 0.105 0.00075  0.03 0.105 0.00075  0.045 0.105 0.00075  0.06 0.105 0.00075  0.075 0.105 0.00075  0.09 0.105 0.00075  0.105 0.105 0.00075  0.12 0.105 0.00075  0.135 0.105 0.00075  0.15 0.105 0.00075  0.165 0.105 0.00075  0.18 0.105 0.00075  0.195 0.105 0.00075  0.21 0.105 0.00075  0.225 0.105 0.00075  0.24 0.105 0.00075  0.255 0.105 0.00075  0.27 0.105 0.00075  0.285 0.105 0.00075  0.3 0.105 0.00075  0 0.12 0.00075  0.015 0.12 0.00075  0.03 0.12 0.00075  0.045 0.12 0.00075  0.06 0.12 0.00075  0.075 0.12 0.00075  0.09 0.12 0.00075  0.105 0.12 0.00075  0.12 0.12 0.00075  0.135 0.12 0.00075  0.15 0.12 0.00075  0.165 0.12 0.00075  0.18 0.12 0.00075  0.195 0.12 0.00075  0.21 0.12 0.00075  0.225 0.12 0.00075  0.24 0.12 0.00075  0.255 0.12 0.00075  0.27 0.12 0.00075  0.285 0.12 0.00075  0.3 0.12 0.00075  0 0.135 0.00075  0.015 0.135 0.00075  0.03 0.135 0.00075  0.045 0.135 0.00075  0.06 0.135 0.00075  0.075 0.135 0.00075  0.09 0.1
[...]
<PointData  Vectors="f_205"> 
<DataArray  type="Float64"  Name="f_205"  NumberOfComponents="3" format="ascii">-2.4017502014168393e+01 -5.0120254415331885e+01 -2.0035484043682072e+00  -1.9603911129870191e+01 -4.8377531883590336e+01 -2.0015970086693624e+00  -1.5330465268766458e+01 -4.6533863562890851e+01 -1.9676168176554425e+00  -1.1240487105669729e+01 -4.4639670309210274e+01 -1.9280129438698461e+00  -7.3370118379001221e+00 -4.2719202907357861e+01 -1.8861996525581692e+00  -3.6150877268235524e+00 -4.0782832926179175e+01 -1.8429465572647723e+00  -6.6065828361167298e-02 -3.8834946405605223e+01 -1.7997110182381069e+00  3.3233062404181557e+00 -3.6875578769934364e+01 -1.7594537891968027e+00  6.5754499688523467e+00 -3.4896872732138327e+01 -1.7275399973138237e+00  9.7322458430303396e+00 -3.2865173577020244e+01 -1.7074099648490848e+00  1.2829581270675623e+01 -3.0676366499961805e+01 -1.6698534392951661e+00  1.5713550504786090e+01 -2.8211752694963273e+01 -1.5447429522762344e+00  1.8217607936524470e+01 -2.5579694297694001e+01 -1.4066549733557296e+00  2.0354268619634496e+01 -2.2897129489833969e+01 -1.2775281278055970e+00  2.2164624849456679e+01 -2.0204543805127479e+01 -1.1525978624451609e+00  2.3674519832401440e+01 -1.7514506401720197e+01 -1.0274735417192842e+00  2.4898739045280937e+01 -1.4833593869225423e+01 -8.9977323976635593e-01  2.5846115116309043e+01 -1.2168779038589509e+01 -7.6782510775968205e-01  2.6520994216457265e+01 -9.5319035209179415e+00 -6.3070094673774391e-01  2.6919313586703282e+01 -6.9546517418760887e+00 -4.9983326786338717e-01  2.7122946735571002e+01 -4.5130469372270436e+00 -4.3472562481749849e-01  -2.5738100145837329e+01 -4.5725584957041939e+01 -1.9784328875012536e+00  -2.1344762985382964e+01 -4.4091995684618190e+01 -1.9859982548619639e+00  -1.7105862982548746e+01 -4.2415848892781966e+01 -1.9511615077106699e+00  -1.3048141448423703e+01 -4.0698813608903890e+01 -1.9083071970901155e+00  -9.1701781328507970e+00 -3.8954144047548652e+01 -1.8635251231230399e+00  -5.4699844554593788e+00 -3.7188577537528360e+01 -1.8174661461463011e+00  -1.9434269289891728e+00 -3.5403028498313418e+01 -1.7710125685770528e+00  1.4166645258612962e+00 -3.3592600882746574e+01 -1.7258083496621792e+00  4.6216824028512757e+00 -3.1743362643311613e+01 -1.6840081583613944e+00  7.6884295254804735e+00 -2.9824974849122803e+01 -1.6451239398749917e+00  1.0625069765553153e+01 -2.7789891583316148e+01 -1.5926416769186540e+00  1.3354656731500206e+01 -2.5612285582268353e+01 -1.4854391452220053e+00  1.5759643617746105e+01 -2.3315621610197429e+01 -1.3541997641452146e+00  1.7846123495528264e+01 -2.0948126685313419e+01 -1.2257237922683688e+00  1.9636228980730824e+01 -1.8548886687350457e+01 -1.0994464145725682e+00  2.1142089149043471e+01 -1.6138556180148647e+01 -9.7228567538576371e-01  2.2372359076336018e+01 -1.3728767029149269e+01 -8.4229871914122456e-01  2.3333726534145036e+01 -1.1328791562961417e+01 -7.0813593970840827e-01  2.4029992243469504e+01 -8.9495162634275705e+00 -5.6952014694359998e-01  2.4458599314527657e+01 -6.6072686822682138e+00 -4.3700793627218704e-01  2.4679339020838022e+01 -4.3089192716918596e+00 -3.5968061989450861e-01  -2.7343299204847721e+01 -4.1314549710887590e+01 -1.9542169920296317e+00  -2.2959057364966881e+01 -3.9813841364138149e+01 -1.9638889973193592e+00  -1.8728152407916884e+01 -3.8298068917818981e+01 -1.9289545604697831e+00  -1.4687524670030324e+01 -3.6757399927540959e+01 -1.8831991786884754e+00  -1.0829751443621007e+01 -3.5190966610538105e+01 -1.8349976834481607e+00  -7.1517180710123833e+00 -3.3600158277584327e+01 -1.7850793395183091e+00  -3.6509765196756412e+00 -3.1983235914115344e+01 -1.7336980730737075e+00  -3.2392762022663102e-01 -3.0333645681578833e+01 -1.6812052241490905e+00  2.8342729455840705e+00 -2.8638390565573996e+01 -1.6274639047282184e+00  5.8278398973545720e+00 -2.6877242928269652e+01 -1.5699746392296605e+00  8.6507091914350980e+00 -2.5030945224139113e+01 -1.4993694532765980e+00  1.1259767281782576e+01 -2.3102909339685212e+01 -1.3996505773132772e+00  1.3589006388403485e+01 -2.1093696369373681e+01 -1.2824307225571083e+00  1.5629669873197013e+01 -1.9021305515866256e+01 -1.1600934500990467e+00  1.7393447710004700e+01 -1.6908481930749414e+01 -1.0356465145058866e+00  1.8885872254387756e+01 -1.4774880368886251e+01 -9.0839149248998208e-01  2.0111059941857082e+01 -1.2634097037676938e+01 -7.7736029428022202e-01  2.1072323762695447e+01 -1.0496219097970100e+01 -6.4172877380158877e-01  2.1770266854976807e+01 -8.3698079051615650e+00 -5.0179719311787674e-01  2.2199771493725688e+01 -6.2609620031955506e+00 -3.6919085420048003e-01  2.2422706471059257e+01 -4.1585982280752463e+00 -2.9272978038750136e-01  -2.8795548946823033e+01 -3.6884822521421832e+01 -1.9335908974991984e+00  -2.4417097208234260e+01 -3.5538816439871333e+01 -1.9433455457150268e+00  -2.0189908947525556e+01 -3.4188878325947869e+01 -1.9073087335738814e+00  -1.6158061501394403e+01 -3.2823532675494512e+01 -1.8592726706796132e+00  -1.2314971305062999e+01 -3.1436716490462619e+01 -1.8076642780526715e+00  -8.6566710583566948e+00 -3.0025304481727744e+01 -1.7534546749244400e+00  -5.1811781794122433e+00 -2.8585624012456265e+01 -1.6966044233968356e+00  -1.8869804731208957e+00 -2.7111409916833836e+01 -1.6367933820803897e+00  1.2267763149703275e+00 -2.5593174792462026e+01 -1.5730671322900620e+00  4.1582714800278691e+00 -2.4019630871211689e+01 -1.5030285117149453e+00  6.8975866138910273e+00 -2.2384021764020499e+01 -1.4218327140662692e+00  9.4180754343089479e+00 -2.0691364829364638e+01 -1.3240109057033358e+00  1.1684439671445681e+01 -1.8938182425228014e+01 -1.2141627712318954e+00  1.3684839024097226e+01 -1.7133264782295505e+01 -1.0970388072613380e+00  1.5420709495473885e+01 -1.5291068228556099e+01 -9.7467533257123318e-01  1.6894222809510762e+01 -1.3425325253660198e+01 -8.4781872735236641e-01  1.8106972796118423e+01 -1.1547618747554544e+01 -7.1633490412678325e-01  1.9059795552948422e+01 -9.6669148244277068e+00 -5.7986613669302889e-01  1.9751182410557814e+01 -7.7894561585241764e+00 -4.3915769008925154e-01  2.0175382207240492e+01 -5.9166545780080222e+00 -3.0643527353648686e-01  2.0396840099389639e+01 -4.0369527996766967e+00 -2.3043050795720227e-01  -3.0076327499513809e+01 -3.2441108985086849e+01 -1.9172546043438374e+00  -2.5702453600259453e+01 -3.1264953707000700e+01 -1.9261342642581092e+00  -2.1478683356204115e+01 -3.0088325342425964e+01 -1.8883178194474264e+00  -1.7453422269044157e+01 -2.8901295363222022e+01 -1.8377987544383749e+00  -1.3621937496722079e+01 -2.7696673532261897e+01 -1.7828861997948711e+00  -9.9808675309771413e+00 -2.6469395949512755e+01 -1.7244980687221851e+00  -6.5287199686442356e+00 -2.5214825280430254e+01 -1.6625041982032502e+00  -3.2652050302729672e+00 -2.3927535554854597e+01 -1.5964068769344104e+00  -1.9153915544495811e-01 -2.2601130607884883e+01 -1.5252231042907580e+00  2.6881979256676432e+00 -2.1229635990878126e+01 -1.4472532436077521e+00  5.3644782928767052e+00 -1.9810772305378336e+01 -1.3600818779911765e+00  7.8199242940450144e+00 -1.8347170476152346e+01 -1.2618437215320986e+00  1.0034242046182056e+01 -1.6836495714080439e+01 -1.1544069019947805e+00  1.1997048643245046e+01 -1.5284018330969191e+01 -1.0396746071274430e+00  1.3705181042691041e+01 -1.3699301442867599e+01 -9.1870962014617230e-01  1.5157856880656382e+01 -1.2091819777417602e+01 -7.9223055796131081e-01  1.6354886625568490e+01 -1.0470219792789182e+01 -6.6048744203986642e-01  1.7295656827947901e+01 -8.8415296910920738e+00 -5.2346117138419546e-01  1.7977724652141951e+01 -7.2101966672153432e+00 -3.8220717404910359e-01  1.8395654139766105e+01 -5.5762231908480935e+00 -2.4918623392395500e-01  1.8615233121944375e+01 -3.9319152157483757e+00 -1.7274665722438473e-01  -3.1175322638397834e+01 -2.7988059820934925e+01 -1.9054817107453270e+00  -2.6805269070719067e+01 -2.6991896838782527e+01 -1.9129613563705909e+00  -2.2585277592901477e+01 -2.5995668005544545e+01 -1.8729319554122243e+00  -1.8566316262838530e+01 -2.4991665183286091e+01 -1.8197097526846642e+00  -1.4745161090192275e+01 -2.3973144472749606e+01 -1.7615551262860769e+00  -1.1119436843021683e+01 -2.2934693862452615e+01 -1.6992956475064067e+00  -7.6883400962304682e+00 -2.1871594471488187e+01 -1.6327662264464993e+00  -4.4523377632238477e+00 -2.0779291439441497e+01 -1.5615058187381283e+00  -1.4135183528752515e+00 -1.9653424825057517e+01 -1.4847478724011078e+00  1.4236167895232834e+00 -1.8490685134482924e+01 -1.4014112037837523e+00  4.0510714927638034e+00 -1.7290158131113305e+01 -1.3102825428554701e+00  6.4569779994684797e+00 -1.6052932898426029e+01 -1.2106767268900935e+00  8.6285102880642892e+00 -1.4778126976917275e+01 -1.1033662081398108e+00  1.0557293748257703e+01 -1.3469289042541552e+01 -9.8916687191786790e-01  1.2238800188194020e+01 -1.2132827262482811e+01 -8.6862434465744376e-01  1.3670554749862120e+01 -1.0775436091068261e+01 -7.4219076830358721e-01  1.4851053390658329e+01 -9.4034265852985790e+00 -6.1014140069221312e-01  1.5778844477165736e+01 -8.0220263084700818e+00 -4.7261799140625488e-01  1.6451193463489687e+01 -6.6344715565589905e+00 -3.3085369207471782e-01  1.6863182409556252e+01 -5.2407831449545617e+00 -1.9733879568673363e-01  1.7080918667087548e+01 -3.8371238962174510e+00 -1.1989435439479257e-01  -3.2085988144624693e+01 -2.3529203702265679e+01 -1.8983804322059510e+00  -2.7719166877924902e+01 -2.2719928421910584e+01 -1.9041710784263530e+00  -2.3503184774332137e+01 -2.1910158489085685e+01 -1.8617019315828740e+00  -1.9490578015212250e+01 -2.1094179490110395e+01 -1.8056820006190402e+00  -1.5679117077745929e+01 -2.0266124412787580e+01 -1.7443879669484348e+00  -1.2067299065686683e+01 -1.9420953410479466e+01 -1.6785895293452573e+00  -8.6549734238723151e+00 -1.8554342800724775e+01 -1.6081191938438735e+00  -5.4430832462248402e+00 -1.7662516602360622e+01 -1.5326066168763675e+00  -2.4339682344427707e+00 -1.6742335482742323e+01 -1.4515130751123566e+00  3.6818627430739387e-01 -1.5791727011384634e+01 -1.3641769997460027e+00  2.9569554938661620e+00 -1.4810122008046569e+01 -1.2699684827033115e+00  5.3238761204889355e+00 -1.3797917504905769e+01 -1.1686017205388948e+00  7.4601449145652952e+00 -1.2755068366689946e+01 -1.0603975737537696e+00  9.3590649257593910e+00 -1.1684116540662076e+01 -9.4571982796285081e-01  1.1016024645960314e+01 -1.0589448076947969e+01 -8.2484899477144547e-01  1.2427862967233755e+01 -9.4758737447500234e+00 -6.9804191920775605e-01  1.3592340220580230e+01 -8.3480398169052243e+00 -5.6550245801962806e-01  1.4507547507040620e+01 -7.2098575658945041e+00 -4.2740843231652659e-01  1.5170716585792517e+01 -6.0638525925220312e+00 -2.8506285232847839e-01  1.5577362326319699e+01 -4.9105172349594532e+00 -1.5087846839379357e-01  1.5793319805642660e+01 -3.7488179554051868e+00 -7.2113924680787519e-02  -3.2803869123596051e+01 -1.9067117363458088e+01 -1.8959799635337407e+00  -2.8439709691291203e+01 -1.8449398317124050e+01 -1.8999202617974980e+00  -2.4227672034893331e+01 -1.7831091645929739e+01 -1.8549449108443432e+00  -2.0221297057955695e+01 -1.7207797649745526e+01 -1.7961615326099489e+00  -1.6418952636998974e+01 -1.6574424954127434e+01 -1.7318846145359170e+00  -1.2819768810312457e+01 -1.5926539082412893e+01 -1.6628595644037694e+00  -9.4240819067177295e+00 -1.5260393411664326e+01 -1.5889380611473192e+00  -6.2330996351598866e+00 -1.4572876978543848e+01 -1.5098399713077637e+00  -3.2491202666822838e+00 -1.3861586495276573e+01 -1.4252024615888368e+00  -4.7579144461281708e-01 -1.3125015119276446e+01 -1.3346241324146493e+00  2.0817776866141728e+00 -1.2362641494868001e+01 -1.2377633709182525e+00  4.4173158386925753e+00 -1.1574564536187056e+01 -1.1344803757515953e+00  6.5243846235759344e+00 -1.0761073162026241e+01 -1.0249038946987294e+00  8.3975704593184446e+00 -9.9240316896105991e+00 -9.0919625458542919e-01  1.0032615984539165e+01 -9.0665147720965127e+00 -7.8749928040639472e-01  1.1426235288900804e+01 -8.1920324445543375e+00 -6.5995442839981588e-01  1.2575901199901438e+01 -7.3040737148915813e+00 -5.2669566820505931e-01  1.3479516287468000e+01 -6.4056763628662239e+00 -3.8788516147252822e-01  1.4134368635736410e+01 -5.4990062731042970e+00 -2.4483078387920371e-01  1.4536266242725260e+01 -4.5850775669427746e+00 -1.0981900441599084e-01  1.4750498676671915e+01 -3.6646569665465170e+00 -2.9559406388804992e-02  -3.3326250494191100e+01 -1.4603828492725313e+01 -1.8984521997855328e+00  -2.8963712177826658e+01 -1.4180505064935085e+01 -1.9002611362852706e+00  -2.4755110432409914e+01 -1.3757799272593608e+01 -1.8528343791338586e+00  -2.0754505907574785e+01 -1.3331317919317994e+01 -1.7914386746438924e+00  -1.6960560181064242e+01 -1.2896397221145438e+01 -1.7243783381421882e+00  -1.3372782585386659e+01 -1.2449245202414918e+01 -1.6524049082133045e+00  -9.9917888425739569e+00 -1.1986736082358401e+01 -1.5754098074836680e+00  -6.8188755296257639e+00 -1.1506324084981307e+01 -1.4931932281938907e+00  -3.8561602678028608e+00 -1.1006079282530445e+01 -1.4055171986301789e+00  -1.1067349734204395e+00 -1.0484765130415841e+01 -1.3121377389372291e+00  1.4253253849594831e+00 -9.9418293951193650e+00 -1.2128613209418870e+00  3.7352210522966645e+00 -9.3772083837681421e+00 -1.1076080463391986e+00  5.8180183905272491e+00 -8.7912350533078829e+00 -9.9642303400051346e-01  7.6692768266502727e+00 -8.1852650168968761e+00 -8.7937474000894100e-01  9.2852048379694079e+00 -7.5614891417258141e+00 -7.5653136692022815e-01  1.0662653742819113e+01 -6.9225082826778959e+00 -6.2796907721339212e-01  1.1799071147342080e+01 -6.2710139281424437e+00 -4.9377166636089043e-01  1.2692335101329958e+01 -5.6094890090678478e+00 -3.5407283824718266e-01  1.3339816514623418e+01 -4.9399518509306102e+00 -2.1015697121334187e-01  1.3737505209233714e+01 -4.2638655797583569e+00 -7.4170461324437109e-02  1.3950063031578967e+01 -3.5831021257080908e+00 7.6905432700859477e-03  -3.3653158176023254e+01 -1.0140125420477938e+01 -1.9078148769183927e+00  -2.9288426941299299e+01 -9.9131283833107879e+00 -1.9055384967590914e+00  -2.5082168741917467e+01 -9.6896844070164665e+00 -1.8555843175722062e+00  -2.1086676303965987e+01 -9.4635728088678555e+00 -1.7917716081316386e+00  -1.7300369397344632e+01 -9.2302937565221175e+00 -1.7221246352897834e+00  -1.3722864022484620e+01 -8.9867372809489687e+00 -1.6474262076283501e+00  -1.0354853213798608e+01 -8.7304003897138838e+00 -1.5676311271124392e+00  -7.1975841361150694e+00 -8.4592207019472472e+00 -1.4826125035629598e+00  -4.2529288161211705e+00 -8.1715957676976672e+00 -1.3922204042908790e+00  -1.5234736158881630e+00 -7.8664270973736290e+00 -1.2963067545886373e+00  9.8750561290159333e-01 -7.5431079730266317e+00 -1.1947576481821174e+00  3.2762367243339590e+00 -7.2014415202325983e+00 -1.0875214131743802e+00  5.3388090993976887e+00 -6.8416556782028879e+00 -9.7460640710978974e-01  7.1715286264109119e+00 -6.4646911308398218e+00 -8.5603587640677203e-01  8.7710601006671940e+00 -6.0721072648135470e+00 -7.3183813534346553e-01  1.0134489193259594e+01 -5.6658536372740116e+00 -6.0205171604456831e-01  1.1259359101005717e+01 -5.2480687339353222e+00 -4.6672670403708511e-01  1.2143598021467678e+01 -4.8208914638021767e+00 -3.2596986110269127e-01  1.2784653045329460e+01 -4.3863148186174152e+00 -1.8103476047973494e-01  1.3178620327261529e+01 -3.9461751933197684e+00 -4.3933434653443362e-02  1.3389552379796084e+01 -3.5030497934463969e+00 3.9603454245698437e-02  -3.3781182519117593e+01 -5.6595187533933675e+00 -1.9311378968823165e+00  -2.9406776949945368e+01 -5.6444000536530528e+00 -1.9174948172519859e+00  -2.5204056955438134e+01 -5.6258432253226340e+00 -1.8638870960135017e+00  -2.1214141424088396e+01 -5.6033681791346241e+00 -1.7975567230274736e+00  -1.7435163029491331e+01 -5.5743571795980715e+00 -1.7253825820017512e+00  -1.3867064273931318e+01 -5.5367189935408110e+00 -1.6480824930093740e+00  -1.0510615389515484e+01 -5.4885940132776563e+00 -1.5656590456865274e+00  -7.3669706108550335e+00 -5.4283349457862009e+00 -1.4780399318345308e+00  -4.4377500320904035e+00 -5.3545739732501172e+00 -1.3851336354430388e+00  -1.7251077439567108e+00 -5.2662810382977883e+00 -1.2868496376760215e+00  7.6829641834434959e-01 -5.1627791553645324e+00 -1.1831177372856769e+00  3.0394334713834774e+00 -5.0437311342099473e+00 -1.0739007738058350e+00  5.0851267463010839e+00 -4.9091853711015361e+00 -9.5919052475965627e-01  6.9022652541762692e+00 -4.7597198840277288e+00 -8.3898734154035626e-01  8.4879206739194331e+00 -4.5964064045632318e+00 -7.1329672553300927e-01  9.8394281993619153e+00 -4.4207026649065950e+00 -5.8213387371769842e-01  1.0954460201954216e+01 -4.2343490954881169e+00 -4.4552540153300313e-01  1.1831005176387519e+01 -4.0392727696685480e+00 -3.0355579360541857e-01  1.2466553280614711e+01 -3.8375172372861885e+00 -1.5744973202022208e-01  1.2857248691663139e+01 -3.6312595113733281e+00 -1.9099999172543580e-02  1.3066595262849116e+01 -3.4236095346280053e+00 6.6172691524685245e-02  -3.3682881010031103e+01 -1.1756849245503687e+00 -1.9412548123932047e+00  -2.9318035334520925e+01 -1.3737937536806120e+00 -1.9331012972355541e+00  -2.5120468431764795e+01 -1.5657018286909639e+00 -1.8778639994406199e+00  -2.1135250885534884e+01 -1.7495489460704818e+00 -1.8090926508532887e+00  -1.7362778263003900e+01 -1.9268559524931956e+00 -1.7343566463643099e+00  -1.3803162703069287e+01 -2.0969913608124879e+00 -1.6544860642825685e+00  -1.0457014299909458e+01 -2.2587403020336621e+00 -1.5695205209091023e+00  -7.3252853735618118e+00 -2.4107973298642764e+00 -1.4794181016421797e+00  -4.4093312939513929e+00 -2.5519544186595295e+00 -1.3841195989314485e+00  -1.7109393927868968e+00 -2.6812007451831930e+00 -1.2835655433617255e+00  7.6770889917439433e-01 -2.7977709020934540e+00 -1.1777080769550132e+00  3.0241391722806132e+00 -2.9011707786734751e+00 -1.0665166286371031e+00  5.0557261193961418e+00 -2.9912305254557694e+00 -9.4997433843589174e-01  6.8598262276104096e+00 -3.0681907994779483e+00 -8.2806852610814052e-01  8.4338645567168644e+00 -3.1327085937858454e+00 -7.0078999698133126e-01  9.7754078883977265e+00 -3.1858333319070091e+00 -5.6813732779785231e-01  1.0882245865898762e+01 -3.2289891820144931e+00 -4.3011879203186304e-01  1.1752395421037409e+01 -3.2639641208069481e+00 -2.8680017034497979e-01  1.2383329962171448e+01 -3.2929061292271036e+00 -1.3938169667975847e-01  1.2771177283927864e+01 -3.3183564343009180e+00 3.4440259712160477e-04  1.2978956542062036e+01 -3.3439589649295418e+00 8.7406963227454837e-02  -3.3379160257392336e+01 3.2896903406754299e+00 -1.9652523367119505e+00  -2.9021991586075814e+01 2.8847061559642264e+00 -1.9568691599623353e+00  -2.4826221660478733e+01 2.4888287981879635e+00 -1.8991193181204133e+00  -2.0846135520149186e+01 2.0986813364483639e+00 -1.8269897081708772e+00  -1.7080540100583793e+01 1.7138476098497892e+00 -1.7492898499258436e+00  -1.3529105957010035e+01 1.3345160098609690e+00 -1.6667236669092511e+00  -1.0192358348954897e+01 9.6151643505194717e-01 -1.5792158446870110e+00  -7.0711515098065627e+00 5.9594158668721686e-01 -1.4866841540307532e+00  -4.1666636541817184e+00 2.3892103624630412e-01 -1.3890638605096461e+00  -1.4804123275364607e+00 -1.0850851749451589e-01 -1.2863019129758164e+00  9.8577927830919865e-01 -4.4547411363485678e-01 -1.1783568721328257e+00  3.2298561059846853e+00 -7.7131011248833881e-01 -1.0651983682259707e+00  5.2496235310897061e+00 -1.0856080471588383e+00 -9.4680303356166062e-01  7.0428278848130583e+00 -1.3882786086785837e+00 -8.2314901946655650e-01  8.6072090674168589e+00 -1.6795875389719024e+00 -6.9421583914518048e-01  9.9405464252427382e+00 -1.9601963491777297e+00 -5.5998797083091978e-01  1.1040721435179165e+01 -2.2312272932200004e+00 -4.2045682625845138e-01  1.1905724411353919e+01 -2.4943458856015184e+00 -2.7567046990357524e-01  1.2532922483196003e+01 -2.7518398836519449e+00 -1.2680809771548349e-01  1.2918331868924703e+01 -3.0066920975848852e+00 1.4419514338090933e-02  1.3124520690012327e+01 -3.2632287073172095e+00 1.0332679697833477e-01  -3.2872265925586710e+01 7.7526563996154882e+00 -1.9952708410424003e+00  -2.8517075935942966e+01 7.1427018639676927e+00 -1.98579031297