<?xml version="1.0"?>
<VTKFile type="UnstructuredGrid"  version="0.1"  >
<UnstructuredGrid>
<Piece  NumberOfPoints="9261" NumberOfCells="48000">
<Points>
<DataArray  type="Float64"  NumberOfComponents="3"  format="ascii">0 0 0  0.015 0 0  0.03 0 0  0.045 0 0  0.06 0 0  0.075 0 0  0.09 0 0  0.105 0 0  0.12 0 0  0.135 0 0  0.15 0 0  0.165 0 0  0.18 0 0  0.195 0 0  0.21 0 0  0.225 0 0  0.24 0 0  0.255 0 0  0.27 0 0  0.285 0 0  0.3 0 0  0 0.015 0  0.015 0.015 0  0.03 0.015 0  0.045 0.015 0  0.06 0.015 0  0.075 0.015 0  0.09 0.015 0  0.105 0.015 0  0.12 0.015 0  0.135 0.015 0  0.15 0.015 0  0.165 0.015 0  0.18 0.015 0  0.195 0.015 0  0.21 0.015 0  0.225 0.015 0  0.24 0.015 0  0.255 0.015 0  0.27 0.015 0  0.285 0.015 0  0.3 0.015 0  0 0.03 0  0.015 0.03 0  0.03 0.03 0  0.045 0.03 0  0.06 0.03 0  0.075 0.03 0  0.09 0.03 0  0.105 0.03 0  0.12 0.03 0  0.135 0.03 0  0.15 0.03 0  0.165 0.03 0  0.18 0.03 0  0.195 0.03 0  0.21 0.03 0  0.225 0.03 0  0.24 0.03 0  0.255 0.03 0  0.27 0.03 0  0.285 0.03 0  0.3 0.03 0  0 0.045 0  0.015 0.045 0  0.03 0.045 0  0.045 0.045 0  0.06 0.045 0  0.075 0.045 0  0.09 0.045 0  0.105 0.045 0  0.12 0.045 0  0.135 0.045 0  0.15 0.045 0  0.165 0.045 0  0.18 0.045 0  0.195 0.045 0  0.21 0.045 0  0.225 0.045 0  0.24 0.045 0  0.255 0.045 0  0.27 0.045 0  0.285 0.045 0  0.3 0.045 0  0 0.06 0  0.015 0.06 0  0.03 0.06 0  0.045 0.06 0  0.06 0.06 0  0.075 0.06 0  0.09 0.06 0  0.105 0.06 0  0.12 0.06 0  0.135 0.06 0  0.15 0.06 0  0.165 0.06 0  0.18 0.06 0  0.195 0.06 0  0.21 0.06 0  0.225 0.06 0  0.24 0.06 0  0.255 0.06 0  0.27 0.06 0  0.285 0.06 0  0.3 0.06 0  0 0.075 0  0.015 0.075 0  0.03 0.075 0  0.045 0.075 0  0.06 0.075 0  0.075 0.075 0  0.09 0.075 0  0.105 0.075 0  0.12 0.075 0  0.135 0.075 0  0.15 0.075 0  0.165 0.075 0  0.18 0.075 0  0.195 0.075 0  0.21 0.075 0  0.225 0.075 0  0.24 0.075 0  0.255 0.075 0  0.27 0.075 0  0.285 0.075 0  0.3 0.075 0  0 0.09 0  0.015 0.09 0  0.03 0.09 0  0.045 0.09 0  0.06 0.09 0  0.075 0.09 0  0.09 0.09 0  0.105 0.09 0  0.12 0.09 0  0.135 0.09 0  0.15 0.09 0  0.165 0.09 0  0.18 0.09 0  0.195 0.09 0  0.21 0.09 0  0.225 0.09 0  0.24 0.09 0  0.255 0.09 0  0.27 0.09 0  0.285 0.09 0  0.3 0.09 0  0 0.105 0  0.015 0.105 0  0.03 0.105 0  0.045 0.105 0  0.06 0.105 0  0.075 0.105 0  0.09 0.105 0  0.105 0.105 0  0.12 0.105 0  0.135 0.105 0  0.15 0.105 0  0.165 0.105 0  0.18 0.105 0  0.195 0.105 0  0.21 0.105 0  0.225 0.105 0  0.24 0.105 0  0.255 0.105 0  0.27 0.105 0  0.285 0.105 0  0.3 0.105 0  0 0.12 0  0.015 0.12 0  0.03 0.12 0  0.045 0.12 0  0.06 0.12 0  0.075 0.12 0  0.09 0.12 0  0.105 0.12 0  0.12 0.12 0  0.135 0.12 0  0.15 0.12 0  0.165 0.12 0  0.18 0.12 0  0.195 0.12 0  0.21 0.12 0  0.225 0.12 0  0.24 0.12 0  0.255 0.12 0  0.27 0.12 0  0.285 0.12 0  0.3 0.12 0  0 0.135 0  0.015 0.135 0  0.03 0.135 0  0.045 0.135 0  0.06 0.135 0  0.075 0.135 0  0.09 0.135 0  0.105 0.135 0  0.12 0.135 0  0.135 0.135 0  0.15 0.135 0  0.165 0.135 0  0.18 0.135 0  0.195 0.135 0  0.21 0.135 0  0.225 0.135 0  0.24 0.135 0  0.255 0.135 0  0.27 0.135 0  0.285 0.135 0  0.3 0.135 0  0 0.15 0  0.015 0.15 0  0.03 0.15 0  0.045 0.15 0  0.06 0.15 0  0.075 0.15 0  0.09 0.15 0  0.105 0.15 0  0.12 0.15 0  0.135 0.15 0  0.15 0.15 0  0.165 0.15 0  0.18 0.15 0  0.195 0.15 0  0.21 0.15 0  0.225 0.15 0  0.24 0.15 0  0.255 0.15 0  0.27 0.15 0  0.285 0.15 0  0.3 0.15 0  0 0.165 0  0.015 0.165 0  0.03 0.165 0  0.045 0.165 0  0.06 0.165 0  0.075 0.165 0  0.09 0.165 0  0.105 0.165 0  0.12 0.165 0  0.135 0.165 0  0.15 0.165 0  0.165 0.165 0  0.18 0.165 0  0.195 0.165 0  0.21 0.165 0  0.225 0.165 0  0.24 0.165 0  0.255 0.165 0  0.27 0.165 0  0.285 0.165 0  0.3 0.165 0  0 0.18 0  0.015 0.18 0  0.03 0.18 0  0.045 0.18 0  0.06 0.18 0  0.075 0.18 0  0.09 0.18 0  0.105 0.18 0  0.12 0.18 0  0.135 0.18 0  0.15 0.18 0  0.165 0.18 0  0.18 0.18 0  0.195 0.18 0  0.21 0.18 0  0.225 0.18 0  0.24 0.18 0  0.255 0.18 0  0.27 0.18 0  0.285 0.18 0  0.3 0.18 0  0 0.195 0  0.015 0.195 0  0.03 0.195 0  0.045 0.195 0  0.06 0.195 0  0.075 0.195 0  0.09 0.195 0  0.105 0.195 0  0.12 0.195 0  0.135 0.195 0  0.15 0.195 0  0.165 0.195 0  0.18 0.195 0  0.195 0.195 0  0.21 0.195 0  0.225 0.195 0  0.24 0.195 0  0.255 0.195 0  0.27 0.195 0  0.285 0.195 0  0.3 0.195 0  0 0.21 0  0.015 0.21 0  0.03 0.21 0  0.045 0.21 0  0.06 0.21 0  0.075 0.21 0  0.09 0.21 0  0.105 0.21 0  0.12 0.21 0  0.135 0.21 0  0.15 0.21 0  0.165 0.21 0  0.18 0.21 0  0.195 0.21 0  0.21 0.21 0  0.225 0.21 0  0.24 0.21 0  0.255 0.21 0  0.27 0.21 0  0.285 0.21 0  0.3 0.21 0  0 0.225 0  0.015 0.225 0  0.03 0.225 0  0.045 0.225 0  0.06 0.225 0  0.075 0.225 0  0.09 0.225 0  0.105 0.225 0  0.12 0.225 0  0.135 0.225 0  0.15 0.225 0  0.165 0.225 0  0.18 0.225 0  0.195 0.225 0  0.21 0.225 0  0.225 0.225 0  0.24 0.225 0  0.255 0.225 0  0.27 0.225 0  0.285 0.225 0  0.3 0.225 0  0 0.24 0  0.015 0.24 0  0.03 0.24 0  0.045 0.24 0  0.06 0.24 0  0.075 0.24 0  0.09 0.24 0  0.105 0.24 0  0.12 0.24 0  0.135 0.24 0  0.15 0.24 0  0.165 0.24 0  0.18 0.24 0  0.195 0.24 0  0.21 0.24 0  0.225 0.24 0  0.24 0.24 0  0.255 0.24 0  0.27 0.24 0  0.285 0.24 0  0.3 0.24 0  0 0.255 0  0.015 0.255 0  0.03 0.255 0  0.045 0.255 0  0.06 0.255 0  0.075 0.255 0  0.09 0.255 0  0.105 0.255 0  0.12 0.255 0  0.135 0.255 0  0.15 0.255 0  0.165 0.255 0  0.18 0.255 0  0.195 0.255 0  0.21 0.255 0  0.225 0.255 0  0.24 0.255 0  0.255 0.255 0  0.27 0.255 0  0.285 0.255 0  0.3 0.255 0  0 0.27 0  0.015 0.27 0  0.03 0.27 0  0.045 0.27 0  0.06 0.27 0  0.075 0.27 0  0.09 0.27 0  0.105 0.27 0  0.12 0.27 0  0.135 0.27 0  0.15 0.27 0  0.165 0.27 0  0.18 0.27 0  0.195 0.27 0  0.21 0.27 0  0.225 0.27 0  0.24 0.27 0  0.255 0.27 0  0.27 0.27 0  0.285 0.27 0  0.3 0.27 0  0 0.285 0  0.015 0.285 0  0.03 0.285 0  0.045 0.285 0  0.06 0.285 0  0.075 0.285 0  0.09 0.285 0  0.105 0.285 0  0.12 0.285 0  0.135 0.285 0  0.15 0.285 0  0.165 0.285 0  0.18 0.285 0  0.195 0.285 0  0.21 0.285 0  0.225 0.285 0  0.24 0.285 0  0.255 0.285 0  0.27 0.285 0  0.285 0.285 0  0.3 0.285 0  0 0.3 0  0.015 0.3 0  0.03 0.3 0  0.045 0.3 0  0.06 0.3 0  0.075 0.3 0  0.09 0.3 0  0.105 0.3 0  0.12 0.3 0  0.135 0.3 0  0.15 0.3 0  0.165 0.3 0  0.18 0.3 0  0.195 0.3 0  0.21 0.3 0  0.225 0.3 0  0.24 0.3 0  0.255 0.3 0  0.27 0.3 0  0.285 0.3 0  0.3 0.3 0  0 0 0.00075  0.015 0 0.00075  0.03 0 0.00075  0.045 0 0.00075  0.06 0 0.00075  0.075 0 0.00075  0.09 0 0.00075  0.105 0 0.00075  0.12 0 0.00075  0.135 0 0.00075  0.15 0 0.00075  0.165 0 0.00075  0.18 0 0.00075  0.195 0 0.00075  0.21 0 0.00075  0.225 0 0.00075  0.24 0 0.00075  0.255 0 0.00075  0.27 0 0.00075  0.285 0 0.00075  0.3 0 0.00075  0 0.015 0.00075  0.015 0.015 0.00075  0.03 0.015 0.00075  0.045 0.015 0.00075  0.06 0.015 0.00075  0.075 0.015 0.00075  0.09 0.015 0.00075  0.105 0.015 0.00075  0.12 0.015 0.00075  0.135 0.015 0.00075  0.15 0.015 0.00075  0.165 0.015 0.00075  0.18 0.015 0.00075  0.195 0.015 0.00075  0.21 0.015 0.00075  0.225 0.015 0.00075  0.24 0.015 0.00075  0.255 0.015 0.00075  0.27 0.015 0.00075  0.285 0.015 0.00075  0.3 0.015 0.00075  0 0.03 0.00075  0.015 0.03 0.00075  0.03 0.03 0.00075  0.045 0.03 0.00075  0.06 0.03 0.00075  0.075 0.03 0.00075  0.09 0.03 0.00075  0.105 0.03 0.00075  0.12 0.03 0.00075  0.135 0.03 0.00075  0.15 0.03 0.00075  0.165 0.03 0.00075  0.18 0.03 0.00075  0.195 0.03 0.00075  0.21 0.03 0.00075  0.225 0.03 0.00075  0.24 0.03 0.00075  0.255 0.03 0.00075  0.27 0.03 0.00075  0.285 0.03 0.00075  0.3 0.03 0.00075  0 0.045 0.00075  0.015 0.045 0.00075  0.03 0.045 0.00075  0.045 0.045 0.00075  0.06 0.045 0.00075  0.075 0.045 0.00075  0.09 0.045 0.00075  0.105 0.045 0.00075  0.12 0.045 0.00075  0.135 0.045 0.00075  0.15 0.045 0.00075  0.165 0.045 0.00075  0.18 0.045 0.00075  0.195 0.045 0.00075  0.21 0.045 0.00075  0.225 0.045 0.00075  0.24 0.045 0.00075  0.255 0.045 0.00075  0.27 0.045 0.00075  0.285 0.045 0.00075  0.3 0.045 0.00075  0 0.06 0.00075  0.015 0.06 0.00075  0.03 0.06 0.00075  0.045 0.06 0.00075  0.06 0.06 0.00075  0.075 0.06 0.00075  0.09 0.06 0.00075  0.105 0.06 0.00075  0.12 0.06 0.00075  0.135 0.06 0.00075  0.15 0.06 0.00075  0.165 0.06 0.00075  0.18 0.06 0.00075  0.195 0.06 0.00075  0.21 0.06 0.00075  0.225 0.06 0.00075  0.24 0.06 0.00075  0.255 0.06 0.00075  0.27 0.06 0.00075  0.285 0.06 0.00075  0.3 0.06 0.00075  0 0.075 0.00075  0.015 0.075 0.00075  0.03 0.075 0.00075  0.045 0.075 0.00075  0.06 0.075 0.00075  0.075 0.075 0.00075  0.09 0.075 0.00075  0.105 0.075 0.00075  0.12 0.075 0.00075  0.135 0.075 0.00075  0.15 0.075 0.00075  0.165 0.075 0.00075  0.18 0.075 0.00075  0.195 0.075 0.00075  0.21 0.075 0.00075  0.225 0.075 0.00075  0.24 0.075 0.00075  0.255 0.075 0.00075  0.27 0.075 0.00075  0.285 0.075 0.00075  0.3 0.075 0.00075  0 0.09 0.00075  0.015 0.09 0.00075  0.03 0.09 0.00075  0.045 0.09 0.00075  0.06 0.09 0.00075  0.075 0.09 0.00075  0.09 0.09 0.00075  0.105 0.09 0.00075  0.12 0.09 0.00075  0.135 0.09 0.00075  0.15 0.09 0.00075  0.165 0.09 0.00075  0.18 0.09 0.00075  0.195 0.09 0.00075  0.21 0.09 0.00075  0.225 0.09 0.00075  0.24 0.09 0.00075  0.255 0.09 0.00075  0.27 0.09 0.00075  0.285 0.09 0.00075  0.3 0.09 0.00075  0 0.105 0.00075  0.015 0.105 0.00075  0.03 0.105 0.00075  0.045 0.105 0.00075  0.06 0.105 0.00075  0.075 0.105 0.00075  0.09 0.105 0.00075  0.105 0.105 0.00075  0.12 0.105 0.00075  0.135 0.105 0.00075  0.15 0.105 0.00075  0.165 0.105 0.00075  0.18 0.105 0.00075  0.195 0.105 0.00075  0.21 0.105 0.00075  0.225 0.105 0.00075  0.24 0.105 0.00075  0.255 0.105 0.00075  0.27 0.105 0.00075  0.285 0.105 0.00075  0.3 0.105 0.00075  0 0.12 0.00075  0.015 0.12 0.00075  0.03 0.12 0.00075  0.045 0.12 0.00075  0.06 0.12 0.00075  0.075 0.12 0.00075  0.09 0.12 0.00075  0.105 0.12 0.00075  0.12 0.12 0.00075  0.135 0.12 0.00075  0.15 0.12 0.00075  0.165 0.12 0.00075  0.18 0.12 0.00075  0.195 0.12 0.00075  0.21 0.12 0.00075  0.225 0.12 0.00075  0.24 0.12 0.00075  0.255 0.12 0.00075  0.27 0.12 0.00075  0.285 0.12 0.00075  0.3 0.12 0.00075  0 0.135 0.00075  0.015 0.135 0.00075  0.03 0.135 0.00075  0.045 0.135 0.00075  0.06 0.135 0.00075  0.075 0.135 0.00075  0.09 0.1
[...]
<PointData  Vectors="f_205"> 
<DataArray  type="Float64"  Name="f_205"  NumberOfComponents="3" format="ascii">-2.4232154761823178e+01 -4.7758002815668902e+01 -1.8411155642071013e+00  -2.0117659555933390e+01 -4.6373582188238892e+01 -1.8724745743957523e+00  -1.6013349092841530e+01 -4.4941758968804017e+01 -1.8783027775030483e+00  -1.1968254885819196e+01 -4.3417616741525300e+01 -1.8650635357833514e+00  -8.0291017022132198e+00 -4.1787361807923538e+01 -1.8386372107228419e+00  -4.2310077781089808e+00 -4.0053573179946916e+01 -1.8034222436677514e+00  -5.9671972126785477e-01 -3.8223471944641481e+01 -1.7619192702480513e+00  2.8590862821638856e+00 -3.6302098341394846e+01 -1.7147159951868436e+00  6.1240074004799609e+00 -3.4290431482930344e+01 -1.6608797137337663e+00  9.1832025627501004e+00 -3.2187395932288439e+01 -1.5986729189369457e+00  1.2017366898693872e+01 -2.9994035129754572e+01 -1.5264300216448254e+00  1.4603891360934261e+01 -2.7717797753437285e+01 -1.4433156120325175e+00  1.6920462124128278e+01 -2.5375151273257913e+01 -1.3496811862890610e+00  1.8949510755160109e+01 -2.2991773683448148e+01 -1.2469718828995124e+00  2.0682127218240247e+01 -2.0600839051471254e+01 -1.1374696699940572e+00  2.2121187071697605e+01 -1.8240401006446948e+01 -1.0242927092211198e+00  2.3284472267926290e+01 -1.5950026144158803e+01 -9.1184263933529175e-01  2.4208318816412294e+01 -1.3765297995248918e+01 -8.0646991660104872e-01  2.4950430907706178e+01 -1.1707864820400289e+01 -7.1685008108181658e-01  2.5588250145334509e+01 -9.7700334260181076e+00 -6.5345261314399594e-01  2.6207668406367162e+01 -7.9012213501264279e+00 -6.2676773624658189e-01  -2.5636003000681480e+01 -4.3656881100999314e+01 -1.8122232732987820e+00  -2.1544307446053427e+01 -4.2319516340716085e+01 -1.8502070749107820e+00  -1.7486571368902950e+01 -4.0978068095618845e+01 -1.8602930399032345e+00  -1.3508141989213314e+01 -3.9576956928362243e+01 -1.8483554351350886e+00  -9.6463401748500264e+00 -3.8092184055055732e+01 -1.8210696262655097e+00  -5.9291417843245844e+00 -3.6518053899478041e+01 -1.7837151469912440e+00  -2.3758782763850603e+00 -3.4856721081179742e+01 -1.7395042228470510e+00  9.9969044598837586e-01 -3.3111614623891185e+01 -1.6894670481859757e+00  4.1855618970076565e+00 -3.1284874699941501e+01 -1.6328460198714589e+00  7.1684468773098509e+00 -2.9377995457803696e+01 -1.5678661828439213e+00  9.9325138340291073e+00 -2.7394335283752060e+01 -1.4926941863897814e+00  1.2460277314200315e+01 -2.5341976770962606e+01 -1.4063008385542968e+00  1.4735160631885357e+01 -2.3235640363523981e+01 -1.3089249818086957e+00  1.6744650087061974e+01 -2.1096992943549058e+01 -1.2020502806491473e+00  1.8483042928538623e+01 -1.8953433256099814e+01 -1.0881567794861218e+00  1.9953560893433941e+01 -1.6835743137138071e+01 -9.7068778474519346e-01  2.1170359319416150e+01 -1.4774524817515642e+01 -8.5446524932455248e-01  2.2160937502138417e+01 -1.2794549754431838e+01 -7.4632185077627278e-01  2.2968434570192880e+01 -1.0905607020517156e+01 -6.5533628060594484e-01  2.3652564801164022e+01 -9.0892900707239637e+00 -5.9181589710085492e-01  2.4290405780199563e+01 -7.2823858548266109e+00 -5.6129691095341350e-01  -2.7005047113293831e+01 -3.9520461248326534e+01 -1.7820706376171642e+00  -2.2932040130324111e+01 -3.8257325441282767e+01 -1.8238365164776533e+00  -1.8896646475703719e+01 -3.7011938832844649e+01 -1.8379060044163442e+00  -1.4952157362425769e+01 -3.5733011560914427e+01 -1.8270652648979517e+00  -1.1135195985233157e+01 -3.4391955746917780e+01 -1.7985283902245888e+00  -7.4706705351528448e+00 -3.2976979587428573e+01 -1.7583871827454094e+00  -3.9748751618084879e+00 -3.1485582378027019e+01 -1.7105435134430411e+00  -6.5913001470537469e-01 -2.9919155368235934e+01 -1.6565155208929490e+00  2.4666957868430357e+00 -2.8280282880268771e+01 -1.5958520450730223e+00  5.3916557635171030e+00 -2.6572354981888957e+01 -1.5269435332764594e+00  8.1027665824338762e+00 -2.4800620792638096e+01 -1.4480071849907894e+00  1.0585765236745376e+01 -2.2973690287190657e+01 -1.3579748850064626e+00  1.2827156716772040e+01 -2.1104642601093651e+01 -1.2570077794155110e+00  1.4816675044064139e+01 -1.9211230506799417e+01 -1.1465500018576094e+00  1.6549376396576601e+01 -1.7315006561416656e+01 -1.0291581488267618e+00  1.8027278146408445e+01 -1.5439342445606222e+01 -9.0852512680149522e-01  1.9261166600522703e+01 -1.3606085480928899e+01 -7.8991925848812372e-01  2.0273283728154077e+01 -1.1830440907508102e+01 -6.8079821549305131e-01  2.1100739271435526e+01 -1.0113421560618352e+01 -5.9093650936459796e-01  2.1799098806218637e+01 -8.4321187635384760e+00 -5.3107587818557789e-01  2.2448787253643214e+01 -6.7283542345715084e+00 -5.0461479968674172e-01  -2.8280342635037936e+01 -3.5342718951168678e+01 -1.7539767738299910e+00  -2.4224120460646422e+01 -3.4184435841828751e+01 -1.7980130187909196e+00  -2.0202327343587118e+01 -3.3050792580637562e+01 -1.8145272629348752e+00  -1.6275557306889496e+01 -3.1899600684602362e+01 -1.8044138998547927e+00  -1.2483730552472228e+01 -3.0703501456456195e+01 -1.7746536887743185e+00  -8.8518987365081649e+00 -2.9448135304959678e+01 -1.7317093162993071e+00  -5.3950083034804051e+00 -2.8128021072901181e+01 -1.6799784161362012e+00  -2.1224614866158791e+00 -2.6742795668364291e+01 -1.6214717486585521e+00  9.5801309310503246e-01 -2.5294868179416127e+01 -1.5561956536987309e+00  3.8377918356721996e+00 -2.3788499548173732e+01 -1.4829359259107069e+00  6.5063733767197345e+00 -2.2229861517408128e+01 -1.4001866798855602e+00  8.9519331228150083e+00 -2.0627517138608528e+01 -1.3069819821330728e+00  1.1162975831849165e+01 -1.8992838303876226e+01 -1.2034117726846472e+00  1.3130354514673982e+01 -1.7340005712157065e+01 -1.0907591923893769e+00  1.4849056530001899e+01 -1.5685318334886528e+01 -9.7145833920042124e-01  1.6319801454135046e+01 -1.4045601508730096e+01 -8.4922840993509652e-01  1.7551114549804790e+01 -1.2435356378266233e+01 -7.2955411832373296e-01  1.8562675541818347e+01 -1.0862673845652891e+01 -6.2027506084017436e-01  1.9389755449197590e+01 -9.3235547061296238e+00 -5.3160453269532226e-01  2.0088177753525560e+01 -7.7956152002945247e+00 -4.7454777472713089e-01  2.0742160533733006e+01 -6.2325563928171803e+00 -4.5120216401507907e-01  -2.9425679186909949e+01 -3.1129321399430928e+01 -1.7297135110174520e+00  -2.5384177087012642e+01 -3.0100970220103811e+01 -1.7748978501518216e+00  -2.1372400825685599e+01 -2.9096161476274229e+01 -1.7925342337336081e+00  -1.7456012402667767e+01 -2.8082202318706599e+01 -1.7823991781005613e+00  -1.3678621434533913e+01 -2.7035640724038391e+01 -1.7511810484007910e+00  -1.0066999227816980e+01 -2.5942378160700265e+01 -1.7054199098454412e+00  -6.6362023514270154e+00 -2.4795753091817673e+01 -1.6498056045406857e+00  -3.3947263201209834e+00 -2.3594280068095504e+01 -1.5867594960503744e+00  -3.4878984941656288e-01 -2.2339885992383831e+01 -1.5167656377378216e+00  2.4948759158145650e+00 -2.1036861447461895e+01 -1.4390916129667932e+00  5.1278708607594616e+00 -1.9691382543348745e+01 -1.3526187671822747e+00  7.5404109823889938e+00 -1.8311356829308167e+01 -1.2565740230280280e+00  9.7226035105298187e+00 -1.6906360615439745e+01 -1.1510117564036089e+00  1.1666117853719140e+01 -1.5487449590587568e+01 -1.0370199150399857e+00  1.3365825453539466e+01 -1.4066559962195283e+01 -9.1681226501142188e-01  1.4821561025486437e+01 -1.2655284351224216e+01 -7.9399018332785465e-01  1.6040597198141477e+01 -1.1262554276441090e+01 -6.7407277145531330e-01  1.7041667828368759e+01 -9.8918096444356003e+00 -5.6508155142517491e-01  1.7860058403693699e+01 -8.5369510521035057e+00 -4.7744077826783099e-01  1.8553011309499009e+01 -7.1787706892717331e+00 -4.2220597167275747e-01  1.9207257088878094e+01 -5.7834654518503994e+00 -4.0063821657163667e-01  -3.0418580849370265e+01 -2.6888870032752656e+01 -1.7102156229311978e+00  -2.6389624549255075e+01 -2.6009117799708761e+01 -1.7557223690993427e+00  -2.2386070413944054e+01 -2.5148326488327815e+01 -1.7735134621199573e+00  -1.8476829180890029e+01 -2.4282075910068475e+01 -1.7626731288435522e+00  -1.4708556182705282e+01 -2.3391556119557467e+01 -1.7296918893526605e+00  -1.1110087886480910e+01 -2.2464468130232149e+01 -1.6811035595054240e+00  -7.6973756390962604e+00 -2.1494298815104667e+01 -1.6217613004840536e+00  -4.4788150240274600e+00 -2.0479084728571937e+01 -1.5543947961900706e+00  -1.4597852857211195e+00 -1.9420211435763260e+01 -1.4799040435595732e+00  1.3543533828510881e+00 -1.8321471096363503e+01 -1.3980138098077011e+00  3.9568984627505590e+00 -1.7188390252195752e+01 -1.3080000354551529e+00  6.3398076723906582e+00 -1.6027768326408776e+01 -1.2093141960152856e+00  8.4946144377999673e+00 -1.4847351821791079e+01 -1.1020162815806449e+00  1.0413793312061205e+01 -1.3655535520569128e+01 -9.8703036257343557e-01  1.2092307068617597e+01 -1.2460818783922647e+01 -8.6634898444852593e-01  1.3529596937585527e+01 -1.1270927616576301e+01 -7.4340404478928102e-01  1.4732386991505546e+01 -1.0090854684345633e+01 -6.2362122626183403e-01  1.5719313601628318e+01 -8.9214494945111884e+00 -5.1506022479532654e-01  1.6526327543929131e+01 -7.7563936208753832e+00 -4.2818819897572807e-01  1.7212022418059860e+01 -6.5805598927114710e+00 -3.7397028515125563e-01  1.7864303937493645e+01 -5.3707673426689269e+00 -3.5310664749203535e-01  -3.1245066985422916e+01 -2.2629373948192850e+01 -1.6959890636218586e+00  -2.7226525943677341e+01 -2.1911595768174614e+01 -1.7412419993632930e+00  -2.3230032208345722e+01 -2.1207170644668462e+01 -1.7585348735565915e+00  -1.9326550958192687e+01 -2.0498341439690183e+01 -1.7465005041789134e+00  -1.5565012510211361e+01 -1.9770763939093126e+01 -1.7115291229995946e+00  -1.1976107768646942e+01 -1.9014556332281472e+01 -1.6601534492323715e+00  -8.5769040243599353e+00 -1.8224117911435592e+01 -1.5973317681089809e+00  -5.3761267586691117e+00 -1.7397490165067076e+01 -1.5260157954204807e+00  -2.3787890874669522e+00 -1.6535584424336367e+01 -1.4474290233751592e+00  4.1067915109769704e-01 -1.5641437064535939e+01 -1.3616697096063812e+00  2.9868957669879017e+00 -1.4719553953346091e+01 -1.2683511917794219e+00  5.3432788844590942e+00 -1.3775370669767909e+01 -1.1671350783052703e+00  7.4726493608271687e+00 -1.2814832601806124e+01 -1.0581161981614051e+00  9.3683226280628062e+00 -1.1844083226755274e+01 -9.4211618709607714e-01  1.1025541119699508e+01 -1.0868989328591036e+01 -8.2097443843366780e-01  1.2443741557307472e+01 -9.8946401551869929e+00 -6.9799333958749310e-01  1.3629484183796080e+01 -8.9233119891062298e+00 -5.7840027491499824e-01  1.4601707739000233e+01 -7.9549193599417096e+00 -4.7019992733789506e-01  1.5397142322422782e+01 -6.9839723939023513e+00 -3.8378373032411156e-01  1.6075310088033170e+01 -5.9993496973821951e+00 -3.2995338318985573e-01  1.6724335785661253e+01 -4.9860798301075331e+00 -3.0903020866109188e-01  -3.1896170494714983e+01 -1.8357172142146020e+01 -1.6872632953135120e+00  -2.7886111921836466e+01 -1.7810852234212529e+01 -1.7318811682810593e+00  -2.3895791008305977e+01 -1.7272302820361752e+01 -1.7482633229277151e+00  -1.9997529980137756e+01 -1.6729025559078483e+01 -1.7347358588792792e+00  -1.6241882517700386e+01 -1.6170653650649836e+01 -1.6976633817800595e+00  -1.2660998135131647e+01 -1.5589838867995727e+01 -1.6436070133039491e+00  -9.2729567478650896e+00 -1.4982244784772625e+01 -1.5776105020105704e+00  -6.0869316939141278e+00 -1.4346216071518052e+01 -1.5027858452823701e+00  -3.1078145590719806e+00 -1.3682298144580550e+01 -1.4205889653101693e+00  -3.3940646770184668e-01 -1.2992700252315229e+01 -1.3313886697707902e+00  2.2139211694803960e+00 -1.2280759625698909e+01 -1.2350452872068367e+00  4.5467824818050104e+00 -1.1550456358398712e+01 -1.1313792674200065e+00  6.6531258117293550e+00 -1.0806017380112573e+01 -1.0205236378061278e+00  8.5271582784760902e+00 -1.0051604739911083e+01 -9.0324316410207062e-01  1.0164475445679269e+01 -9.2910096596771616e+00 -7.8131724989667195e-01  1.1564705287985577e+01 -8.5277318371172779e+00 -6.5812163433885384e-01  1.2734273209324224e+01 -7.7620409680776019e+00 -5.3856265225307798e-01  1.3692638426108484e+01 -6.9944233777729217e+00 -4.3054104201975624e-01  1.4477272252923672e+01 -6.2206277059721762e+00 -3.4426480964516304e-01  1.5148203712652981e+01 -5.4330173270399689e+00 -2.9033935995458304e-01  1.5793204258270180e+01 -4.6227026799754460e+00 -2.6883701687824035e-01  -3.2365668621464550e+01 -1.4077093372723871e+01 -1.6840425323862653e+00  -2.8362520606607724e+01 -1.3708939129030973e+01 -1.7277764087227270e+00  -2.4377722141224673e+01 -1.3343232440146373e+01 -1.7429895781354079e+00  -2.0484583295310884e+01 -1.2971767900447063e+01 -1.7278008410509416e+00  -1.6734790314558907e+01 -1.2587669665499991e+01 -1.6886012996807005e+00  -1.3161538697691169e+01 -1.2186022926200648e+01 -1.6320112122705666e+00  -9.7836758145952931e+00 -1.1763862468303644e+01 -1.5631593250196045e+00  -6.6107528402767910e+00 -1.1319986796575948e+01 -1.4852821061033650e+00  -3.6476113351630954e+00 -1.0854676574273205e+01 -1.4000010056053716e+00  -8.9759415617281957e-01 -1.0369352228823107e+01 -1.3078689131467118e+00  1.6357130787346088e+00 -9.8662015811094061e+00 -1.2089033470760617e+00  3.9478897158772916e+00 -9.3478146733248444e+00 -1.1030051379308621e+00  6.0338371368115027e+00 -8.8168591656311168e+00 -9.9029173345017119e-01  7.8886313953918910e+00 -8.2757559034400412e+00 -8.7146833473583074e-01  9.5084964262868450e+00 -7.7262821650659550e+00 -7.4810492769239623e-01  1.0893263355655396e+01 -7.1708389510932911e+00 -6.2418873814006659e-01  1.2048371093069935e+01 -6.6081283441355243e+00 -5.0423225498712576e-01  1.2994196099700837e+01 -6.0410199074378053e+00 -3.9614087777609064e-01  1.3769067774574648e+01 -5.4663056656116149e+00 -3.0971240853879478e-01  1.4433206438482152e+01 -4.8791675207923690e+00 -2.5531957878539091e-01  1.5073725282118545e+01 -4.2751968004835490e+00 -2.3288422016789670e-01  -3.2648884660312667e+01 -9.7931866244874151e+00 -1.6861689624870386e+00  -2.8651541086939787e+01 -9.6078067303119425e+00 -1.7288356896114250e+00  -2.4671896516622514e+01 -9.4197212567932489e+00 -1.7426892453115084e+00  -2.0784063297157818e+01 -9.2244860249648362e+00 -1.7257213959664264e+00  -1.7040510213934464e+01 -9.0183634113921460e+00 -1.6843816795226301e+00  -1.3475116622388379e+01 -8.7987129784753204e+00 -1.6253718654870517e+00  -1.0107219733209980e+01 -8.5639120280181675e+00 -1.5539117506476914e+00  -6.9465974982626433e+00 -8.3132407087795723e+00 -1.4733469004639874e+00  -3.9980191881935041e+00 -8.0467507600697772e+00 -1.3854303586922898e+00  -1.2644544756448843e+00 -7.7651067555471354e+00 -1.2908578785125169e+00  1.2511442702770466e+00 -7.4694027163974539e+00 -1.1897709992338465e+00  3.5451575894910174e+00 -7.1609758338021976e+00 -1.0821310110171971e+00  5.6133332554887110e+00 -6.8412387079706924e+00 -9.6800229130365811e-01  7.4514230376792900e+00 -6.5114925043781726e+00 -8.4788963096160330e-01  9.0557468445213551e+00 -6.1728211641176021e+00 -7.2318222682163213e-01  1.0429826941364031e+01 -5.8230754869287100e+00 -5.9762525290016244e-01  1.1572818438993501e+01 -5.4614990075323808e+00 -4.7578519474697428e-01  1.2507219438291155e+01 -5.0948091918789240e+00 -3.6713382314823523e-01  1.3273241832358035e+01 -4.7202447698712042e+00 -2.8024639121491085e-01  1.3931013195538496e+01 -4.3353077650768030e+00 -2.2508105765012659e-01  1.4566794993789614e+01 -3.9390309823997751e+00 -2.0146103769876333e-01  -3.2742428198963125e+01 -5.5094162252907370e+00 -1.6934571906121791e+00  -2.8750186671965302e+01 -5.5096285137855538e+00 -1.7348861423916420e+00  -2.4775583542663302e+01 -5.5020681810794265e+00 -1.7471977425892751e+00  -2.0893417609213316e+01 -5.4858344744821208e+00 -1.7283241854375464e+00  -1.7156681369799692e+01 -5.4601444464086235e+00 -1.6847866657906960e+00  -1.3599632574155555e+01 -5.4244973160716663e+00 -1.6233757327260259e+00  -1.0241832861181042e+01 -5.3785221080296886e+00 -1.5494003116161983e+00  -7.0931146792134063e+00 -5.3219177405605045e+00 -1.4662992516509596e+00  -4.1581171850783685e+00 -5.2544551083008679e+00 -1.3759289543534690e+00  -1.4394930969285560e+00 -5.1759871036214307e+00 -1.2790981315879315e+00  1.0602844069559676e+00 -5.0864403466849168e+00 -1.1760629092029007e+00  3.3381836019381144e+00 -4.9857946884703317e+00 -1.0668907198105617e+00  5.3906142901096024e+00 -4.8740727243345479e+00 -9.5173776207858141e-01  7.2140636525979076e+00 -4.7513534533404265e+00 -8.3116615834846796e-01  8.8064958485429656e+00 -4.6178188955636017e+00 -7.0657189155636968e-01  1.0171602159078835e+01 -4.4741819228729440e+00 -5.8205396006556021e-01  1.1307381026009518e+01 -4.3199492231325429e+00 -4.5404731539865623e-01  1.2231003690408038e+01 -4.1551939634265125e+00 -3.4376045041824010e-01  1.2989067747337353e+01 -3.9813082082031044e+00 -2.5601057200078747e-01  1.3640998075351428e+01 -3.7989826488844285e+00 -1.9980172441625532e-01  1.4271968507190739e+01 -3.6103611180104203e+00 -1.7480912916968416e-01  -3.2644451639521485e+01 -1.2298665769038257e+00 -1.7058448687423711e+00  -2.8656766947430569e+01 -1.4167981335681028e+00 -1.7458579911649410e+00  -2.4687210512186763e+01 -1.5909861716547948e+00 -1.7564430458827316e+00  -2.0811144606932682e+01 -1.7550796894959935e+00 -1.7355261885491382e+00  -1.7081852492289670e+01 -1.9112359268396943e+00 -1.6897025745588932e+00  -1.3533693208550710e+01 -2.0610218373223228e+00 -1.6258469885773914e+00  -1.0186202212058824e+01 -2.2052158156273416e+00 -1.5493460524800862e+00  -7.0490857870618813e+00 -2.3438355414375232e+00 -1.4637086832743267e+00  -4.1267552817057167e+00 -2.4762960644553051e+00 -1.3708560705428923e+00  -1.4215213973578791e+00 -2.6015984184578063e+00 -1.2716545668110473e+00  1.0645986182249654e+00 -2.7184966340233148e+00 -1.1664013533558544e+00  3.3291097568957233e+00 -2.8256390075622462e+00 -1.0551720554333532e+00  5.3689546947154501e+00 -2.9217088898355299e+00 -9.3807820071282777e-01  7.1809492693994814e+00 -3.0055884656709191e+00 -8.1555227311214074e-01  8.7628279568758245e+00 -3.0766438702012029e+00 -6.8883240289909353e-01  1.0114868701497054e+01 -3.1348289940757268e+00 -5.6071365227642911e-01  1.1242295967419029e+01 -3.1848649564521501e+00 -4.3616714176331822e-01  1.2160278490563952e+01 -3.2226943357070610e+00 -3.2565480539023767e-01  1.2914054354051800e+01 -3.2487204103555323e+00 -2.3704034420576608e-01  1.3561738341516827e+01 -3.2679205309309487e+00 -1.7961105762078369e-01  1.4188064040027585e+01 -3.2858630050450284e+00 -1.5310385011351832e-01  -3.2354812504857243e+01 3.0415060468904880e+00 -1.7234431853363754e+00  -2.8370997310993801e+01 2.6684027302299254e+00 -1.7618632314472187e+00  -2.4406424988147617e+01 2.3129120485781005e+00 -1.7705519749041465e+00  -2.0536855524665608e+01 1.9685686831272384e+00 -1.7474729089414134e+00  -1.6815600246394879e+01 1.6301311324290391e+00 -1.6992988071237356e+00  -1.3276847586969353e+01 1.2939901339906825e+00 -1.6329837461192622e+00  -9.9398889705775400e+00 9.5834807105247521e-01 -1.5539838033163929e+00  -6.8141717826733936e+00 6.2302548384673229e-01 -1.4658662002841527e+00  -3.9038374308141539e+00 2.8909175485585914e-01 -1.3706021856389106e+00  -1.2108946948067247e+00 -4.1527037416689588e-02 -1.2691023973234059e+00  1.2629846440275467e+00 -3.6639040273862378e-01 -1.1617031511496663e+00  3.5156697872581510e+00 -6.8283143919494926e-01 -1.0485159649866536e+00  5.5444124826639101e+00 -9.8822629489721137e-01 -9.2969505065639935e-01  7.3461791915539818e+00 -1.2802922782194273e+00 -8.0574721205014532e-01  8.9186001531712424e+00 -1.5574563883470161e+00 -6.7802719179894677e-01  1.0261958792590889e+01 -1.8192977971066400e+00 -5.4948928261032803e-01  1.1382617259911655e+01 -2.0677243490731856e+00 -4.2541032228332659e-01  1.2299021280114539e+01 -2.3003915546622378e+00 -3.1408648530630645e-01  1.3049792060622460e+01 -2.5223431716154265e+00 -2.2383958223184300e-01  1.3693480835716208e+01 -2.7399811553121340e+00 -1.6471450778457217e-01  1.4314791214694544e+01 -2.9621135653018507e+00 -1.3648576568585261e-01  -3.1874854054840835e+01 7.3010861578229491e+00 -1.7464559532210617e+00  -2.7893892880392009e+01 6.7441130925796129e+00 -1.7831