<?xml version="1.0"?>
<VTKFile type="UnstructuredGrid"  version="0.1"  >
<UnstructuredGrid>
<Piece  NumberOfPoints="9261" NumberOfCells="48000">
<Points>
<DataArray  type="Float64"  NumberOfComponents="3"  format="ascii">0 0 0  0.015 0 0  0.03 0 0  0.045 0 0  0.06 0 0  0.075 0 0  0.09 0 0  0.105 0 0  0.12 0 0  0.135 0 0  0.15 0 0  0.165 0 0  0.18 0 0  0.195 0 0  0.21 0 0  0.225 0 0  0.24 0 0  0.255 0 0  0.27 0 0  0.285 0 0  0.3 0 0  0 0.015 0  0.015 0.015 0  0.03 0.015 0  0.045 0.015 0  0.06 0.015 0  0.075 0.015 0  0.09 0.015 0  0.105 0.015 0  0.12 0.015 0  0.135 0.015 0  0.15 0.015 0  0.165 0.015 0  0.18 0.015 0  0.195 0.015 0  0.21 0.015 0  0.225 0.015 0  0.24 0.015 0  0.255 0.015 0  0.27 0.015 0  0.285 0.015 0  0.3 0.015 0  0 0.03 0  0.015 0.03 0  0.03 0.03 0  0.045 0.03 0  0.06 0.03 0  0.075 0.03 0  0.09 0.03 0  0.105 0.03 0  0.12 0.03 0  0.135 0.03 0  0.15 0.03 0  0.165 0.03 0  0.18 0.03 0  0.195 0.03 0  0.21 0.03 0  0.225 0.03 0  0.24 0.03 0  0.255 0.03 0  0.27 0.03 0  0.285 0.03 0  0.3 0.03 0  0 0.045 0  0.015 0.045 0  0.03 0.045 0  0.045 0.045 0  0.06 0.045 0  0.075 0.045 0  0.09 0.045 0  0.105 0.045 0  0.12 0.045 0  0.135 0.045 0  0.15 0.045 0  0.165 0.045 0  0.18 0.045 0  0.195 0.045 0  0.21 0.045 0  0.225 0.045 0  0.24 0.045 0  0.255 0.045 0  0.27 0.045 0  0.285 0.045 0  0.3 0.045 0  0 0.06 0  0.015 0.06 0  0.03 0.06 0  0.045 0.06 0  0.06 0.06 0  0.075 0.06 0  0.09 0.06 0  0.105 0.06 0  0.12 0.06 0  0.135 0.06 0  0.15 0.06 0  0.165 0.06 0  0.18 0.06 0  0.195 0.06 0  0.21 0.06 0  0.225 0.06 0  0.24 0.06 0  0.255 0.06 0  0.27 0.06 0  0.285 0.06 0  0.3 0.06 0  0 0.075 0  0.015 0.075 0  0.03 0.075 0  0.045 0.075 0  0.06 0.075 0  0.075 0.075 0  0.09 0.075 0  0.105 0.075 0  0.12 0.075 0  0.135 0.075 0  0.15 0.075 0  0.165 0.075 0  0.18 0.075 0  0.195 0.075 0  0.21 0.075 0  0.225 0.075 0  0.24 0.075 0  0.255 0.075 0  0.27 0.075 0  0.285 0.075 0  0.3 0.075 0  0 0.09 0  0.015 0.09 0  0.03 0.09 0  0.045 0.09 0  0.06 0.09 0  0.075 0.09 0  0.09 0.09 0  0.105 0.09 0  0.12 0.09 0  0.135 0.09 0  0.15 0.09 0  0.165 0.09 0  0.18 0.09 0  0.195 0.09 0  0.21 0.09 0  0.225 0.09 0  0.24 0.09 0  0.255 0.09 0  0.27 0.09 0  0.285 0.09 0  0.3 0.09 0  0 0.105 0  0.015 0.105 0  0.03 0.105 0  0.045 0.105 0  0.06 0.105 0  0.075 0.105 0  0.09 0.105 0  0.105 0.105 0  0.12 0.105 0  0.135 0.105 0  0.15 0.105 0  0.165 0.105 0  0.18 0.105 0  0.195 0.105 0  0.21 0.105 0  0.225 0.105 0  0.24 0.105 0  0.255 0.105 0  0.27 0.105 0  0.285 0.105 0  0.3 0.105 0  0 0.12 0  0.015 0.12 0  0.03 0.12 0  0.045 0.12 0  0.06 0.12 0  0.075 0.12 0  0.09 0.12 0  0.105 0.12 0  0.12 0.12 0  0.135 0.12 0  0.15 0.12 0  0.165 0.12 0  0.18 0.12 0  0.195 0.12 0  0.21 0.12 0  0.225 0.12 0  0.24 0.12 0  0.255 0.12 0  0.27 0.12 0  0.285 0.12 0  0.3 0.12 0  0 0.135 0  0.015 0.135 0  0.03 0.135 0  0.045 0.135 0  0.06 0.135 0  0.075 0.135 0  0.09 0.135 0  0.105 0.135 0  0.12 0.135 0  0.135 0.135 0  0.15 0.135 0  0.165 0.135 0  0.18 0.135 0  0.195 0.135 0  0.21 0.135 0  0.225 0.135 0  0.24 0.135 0  0.255 0.135 0  0.27 0.135 0  0.285 0.135 0  0.3 0.135 0  0 0.15 0  0.015 0.15 0  0.03 0.15 0  0.045 0.15 0  0.06 0.15 0  0.075 0.15 0  0.09 0.15 0  0.105 0.15 0  0.12 0.15 0  0.135 0.15 0  0.15 0.15 0  0.165 0.15 0  0.18 0.15 0  0.195 0.15 0  0.21 0.15 0  0.225 0.15 0  0.24 0.15 0  0.255 0.15 0  0.27 0.15 0  0.285 0.15 0  0.3 0.15 0  0 0.165 0  0.015 0.165 0  0.03 0.165 0  0.045 0.165 0  0.06 0.165 0  0.075 0.165 0  0.09 0.165 0  0.105 0.165 0  0.12 0.165 0  0.135 0.165 0  0.15 0.165 0  0.165 0.165 0  0.18 0.165 0  0.195 0.165 0  0.21 0.165 0  0.225 0.165 0  0.24 0.165 0  0.255 0.165 0  0.27 0.165 0  0.285 0.165 0  0.3 0.165 0  0 0.18 0  0.015 0.18 0  0.03 0.18 0  0.045 0.18 0  0.06 0.18 0  0.075 0.18 0  0.09 0.18 0  0.105 0.18 0  0.12 0.18 0  0.135 0.18 0  0.15 0.18 0  0.165 0.18 0  0.18 0.18 0  0.195 0.18 0  0.21 0.18 0  0.225 0.18 0  0.24 0.18 0  0.255 0.18 0  0.27 0.18 0  0.285 0.18 0  0.3 0.18 0  0 0.195 0  0.015 0.195 0  0.03 0.195 0  0.045 0.195 0  0.06 0.195 0  0.075 0.195 0  0.09 0.195 0  0.105 0.195 0  0.12 0.195 0  0.135 0.195 0  0.15 0.195 0  0.165 0.195 0  0.18 0.195 0  0.195 0.195 0  0.21 0.195 0  0.225 0.195 0  0.24 0.195 0  0.255 0.195 0  0.27 0.195 0  0.285 0.195 0  0.3 0.195 0  0 0.21 0  0.015 0.21 0  0.03 0.21 0  0.045 0.21 0  0.06 0.21 0  0.075 0.21 0  0.09 0.21 0  0.105 0.21 0  0.12 0.21 0  0.135 0.21 0  0.15 0.21 0  0.165 0.21 0  0.18 0.21 0  0.195 0.21 0  0.21 0.21 0  0.225 0.21 0  0.24 0.21 0  0.255 0.21 0  0.27 0.21 0  0.285 0.21 0  0.3 0.21 0  0 0.225 0  0.015 0.225 0  0.03 0.225 0  0.045 0.225 0  0.06 0.225 0  0.075 0.225 0  0.09 0.225 0  0.105 0.225 0  0.12 0.225 0  0.135 0.225 0  0.15 0.225 0  0.165 0.225 0  0.18 0.225 0  0.195 0.225 0  0.21 0.225 0  0.225 0.225 0  0.24 0.225 0  0.255 0.225 0  0.27 0.225 0  0.285 0.225 0  0.3 0.225 0  0 0.24 0  0.015 0.24 0  0.03 0.24 0  0.045 0.24 0  0.06 0.24 0  0.075 0.24 0  0.09 0.24 0  0.105 0.24 0  0.12 0.24 0  0.135 0.24 0  0.15 0.24 0  0.165 0.24 0  0.18 0.24 0  0.195 0.24 0  0.21 0.24 0  0.225 0.24 0  0.24 0.24 0  0.255 0.24 0  0.27 0.24 0  0.285 0.24 0  0.3 0.24 0  0 0.255 0  0.015 0.255 0  0.03 0.255 0  0.045 0.255 0  0.06 0.255 0  0.075 0.255 0  0.09 0.255 0  0.105 0.255 0  0.12 0.255 0  0.135 0.255 0  0.15 0.255 0  0.165 0.255 0  0.18 0.255 0  0.195 0.255 0  0.21 0.255 0  0.225 0.255 0  0.24 0.255 0  0.255 0.255 0  0.27 0.255 0  0.285 0.255 0  0.3 0.255 0  0 0.27 0  0.015 0.27 0  0.03 0.27 0  0.045 0.27 0  0.06 0.27 0  0.075 0.27 0  0.09 0.27 0  0.105 0.27 0  0.12 0.27 0  0.135 0.27 0  0.15 0.27 0  0.165 0.27 0  0.18 0.27 0  0.195 0.27 0  0.21 0.27 0  0.225 0.27 0  0.24 0.27 0  0.255 0.27 0  0.27 0.27 0  0.285 0.27 0  0.3 0.27 0  0 0.285 0  0.015 0.285 0  0.03 0.285 0  0.045 0.285 0  0.06 0.285 0  0.075 0.285 0  0.09 0.285 0  0.105 0.285 0  0.12 0.285 0  0.135 0.285 0  0.15 0.285 0  0.165 0.285 0  0.18 0.285 0  0.195 0.285 0  0.21 0.285 0  0.225 0.285 0  0.24 0.285 0  0.255 0.285 0  0.27 0.285 0  0.285 0.285 0  0.3 0.285 0  0 0.3 0  0.015 0.3 0  0.03 0.3 0  0.045 0.3 0  0.06 0.3 0  0.075 0.3 0  0.09 0.3 0  0.105 0.3 0  0.12 0.3 0  0.135 0.3 0  0.15 0.3 0  0.165 0.3 0  0.18 0.3 0  0.195 0.3 0  0.21 0.3 0  0.225 0.3 0  0.24 0.3 0  0.255 0.3 0  0.27 0.3 0  0.285 0.3 0  0.3 0.3 0  0 0 0.00075  0.015 0 0.00075  0.03 0 0.00075  0.045 0 0.00075  0.06 0 0.00075  0.075 0 0.00075  0.09 0 0.00075  0.105 0 0.00075  0.12 0 0.00075  0.135 0 0.00075  0.15 0 0.00075  0.165 0 0.00075  0.18 0 0.00075  0.195 0 0.00075  0.21 0 0.00075  0.225 0 0.00075  0.24 0 0.00075  0.255 0 0.00075  0.27 0 0.00075  0.285 0 0.00075  0.3 0 0.00075  0 0.015 0.00075  0.015 0.015 0.00075  0.03 0.015 0.00075  0.045 0.015 0.00075  0.06 0.015 0.00075  0.075 0.015 0.00075  0.09 0.015 0.00075  0.105 0.015 0.00075  0.12 0.015 0.00075  0.135 0.015 0.00075  0.15 0.015 0.00075  0.165 0.015 0.00075  0.18 0.015 0.00075  0.195 0.015 0.00075  0.21 0.015 0.00075  0.225 0.015 0.00075  0.24 0.015 0.00075  0.255 0.015 0.00075  0.27 0.015 0.00075  0.285 0.015 0.00075  0.3 0.015 0.00075  0 0.03 0.00075  0.015 0.03 0.00075  0.03 0.03 0.00075  0.045 0.03 0.00075  0.06 0.03 0.00075  0.075 0.03 0.00075  0.09 0.03 0.00075  0.105 0.03 0.00075  0.12 0.03 0.00075  0.135 0.03 0.00075  0.15 0.03 0.00075  0.165 0.03 0.00075  0.18 0.03 0.00075  0.195 0.03 0.00075  0.21 0.03 0.00075  0.225 0.03 0.00075  0.24 0.03 0.00075  0.255 0.03 0.00075  0.27 0.03 0.00075  0.285 0.03 0.00075  0.3 0.03 0.00075  0 0.045 0.00075  0.015 0.045 0.00075  0.03 0.045 0.00075  0.045 0.045 0.00075  0.06 0.045 0.00075  0.075 0.045 0.00075  0.09 0.045 0.00075  0.105 0.045 0.00075  0.12 0.045 0.00075  0.135 0.045 0.00075  0.15 0.045 0.00075  0.165 0.045 0.00075  0.18 0.045 0.00075  0.195 0.045 0.00075  0.21 0.045 0.00075  0.225 0.045 0.00075  0.24 0.045 0.00075  0.255 0.045 0.00075  0.27 0.045 0.00075  0.285 0.045 0.00075  0.3 0.045 0.00075  0 0.06 0.00075  0.015 0.06 0.00075  0.03 0.06 0.00075  0.045 0.06 0.00075  0.06 0.06 0.00075  0.075 0.06 0.00075  0.09 0.06 0.00075  0.105 0.06 0.00075  0.12 0.06 0.00075  0.135 0.06 0.00075  0.15 0.06 0.00075  0.165 0.06 0.00075  0.18 0.06 0.00075  0.195 0.06 0.00075  0.21 0.06 0.00075  0.225 0.06 0.00075  0.24 0.06 0.00075  0.255 0.06 0.00075  0.27 0.06 0.00075  0.285 0.06 0.00075  0.3 0.06 0.00075  0 0.075 0.00075  0.015 0.075 0.00075  0.03 0.075 0.00075  0.045 0.075 0.00075  0.06 0.075 0.00075  0.075 0.075 0.00075  0.09 0.075 0.00075  0.105 0.075 0.00075  0.12 0.075 0.00075  0.135 0.075 0.00075  0.15 0.075 0.00075  0.165 0.075 0.00075  0.18 0.075 0.00075  0.195 0.075 0.00075  0.21 0.075 0.00075  0.225 0.075 0.00075  0.24 0.075 0.00075  0.255 0.075 0.00075  0.27 0.075 0.00075  0.285 0.075 0.00075  0.3 0.075 0.00075  0 0.09 0.00075  0.015 0.09 0.00075  0.03 0.09 0.00075  0.045 0.09 0.00075  0.06 0.09 0.00075  0.075 0.09 0.00075  0.09 0.09 0.00075  0.105 0.09 0.00075  0.12 0.09 0.00075  0.135 0.09 0.00075  0.15 0.09 0.00075  0.165 0.09 0.00075  0.18 0.09 0.00075  0.195 0.09 0.00075  0.21 0.09 0.00075  0.225 0.09 0.00075  0.24 0.09 0.00075  0.255 0.09 0.00075  0.27 0.09 0.00075  0.285 0.09 0.00075  0.3 0.09 0.00075  0 0.105 0.00075  0.015 0.105 0.00075  0.03 0.105 0.00075  0.045 0.105 0.00075  0.06 0.105 0.00075  0.075 0.105 0.00075  0.09 0.105 0.00075  0.105 0.105 0.00075  0.12 0.105 0.00075  0.135 0.105 0.00075  0.15 0.105 0.00075  0.165 0.105 0.00075  0.18 0.105 0.00075  0.195 0.105 0.00075  0.21 0.105 0.00075  0.225 0.105 0.00075  0.24 0.105 0.00075  0.255 0.105 0.00075  0.27 0.105 0.00075  0.285 0.105 0.00075  0.3 0.105 0.00075  0 0.12 0.00075  0.015 0.12 0.00075  0.03 0.12 0.00075  0.045 0.12 0.00075  0.06 0.12 0.00075  0.075 0.12 0.00075  0.09 0.12 0.00075  0.105 0.12 0.00075  0.12 0.12 0.00075  0.135 0.12 0.00075  0.15 0.12 0.00075  0.165 0.12 0.00075  0.18 0.12 0.00075  0.195 0.12 0.00075  0.21 0.12 0.00075  0.225 0.12 0.00075  0.24 0.12 0.00075  0.255 0.12 0.00075  0.27 0.12 0.00075  0.285 0.12 0.00075  0.3 0.12 0.00075  0 0.135 0.00075  0.015 0.135 0.00075  0.03 0.135 0.00075  0.045 0.135 0.00075  0.06 0.135 0.00075  0.075 0.135 0.00075  0.09 0.1
[...]
<PointData  Vectors="f_205"> 
<DataArray  type="Float64"  Name="f_205"  NumberOfComponents="3" format="ascii">-2.4198821643481391e+01 -4.8856518439541013e+01 -1.8840198750195600e+00  -1.9958666634650495e+01 -4.7345804445819347e+01 -1.9119655249590393e+00  -1.5755021949543513e+01 -4.5762223207350871e+01 -1.9077020124377417e+00  -1.1654538904556761e+01 -4.4080855689562391e+01 -1.8836979270032630e+00  -7.7017046981331525e+00 -4.2312159928707580e+01 -1.8497088469457925e+00  -3.9167129601559498e+00 -4.0474297062245114e+01 -1.8114960810116223e+00  -3.0300174887683395e-01 -3.8578886615827535e+01 -1.7716249549296312e+00  3.1437583251871315e+00 -3.6625709298936798e+01 -1.7301617639692868e+00  6.4267502924766973e+00 -3.4601828877019742e+01 -1.6845129233725731e+00  9.5385355522247544e+00 -3.2485299614323075e+01 -1.6295091976505598e+00  1.2454247555511692e+01 -3.0255383339877660e+01 -1.5594743980421502e+00  1.5134289029538339e+01 -2.7906258091321586e+01 -1.4718564289488780e+00  1.7537756665459515e+01 -2.5454483214008317e+01 -1.3689681990193869e+00  1.9636736377178874e+01 -2.2933843067921728e+01 -1.2557945876698848e+00  2.1421062434558330e+01 -2.0383455167617008e+01 -1.1365495130028900e+00  2.2894055018776854e+01 -1.7839898380222909e+01 -1.0134183707952709e+00  2.4067378280646906e+01 -1.5337350493590922e+01 -8.8803895932173382e-01  2.4962327304534565e+01 -1.2911539452180421e+01 -7.6469657826682591e-01  2.5620363338891917e+01 -1.0598529028764327e+01 -6.5382647361154256e-01  2.6118117637812791e+01 -8.4172338459297418e+00 -5.7277577272595015e-01  2.6570230488723727e+01 -6.3355670426362138e+00 -5.3981889074776057e-01  -2.5723737880433276e+01 -4.4634695365171964e+01 -1.8561293166758415e+00  -2.1509074185488736e+01 -4.3184964339761216e+01 -1.8916878033474036e+00  -1.7352795293595005e+01 -4.1714591776280329e+01 -1.8913411843908610e+00  -1.3311889590491232e+01 -4.0179294762921380e+01 -1.8671607742873209e+00  -9.4204976207523874e+00 -3.8572628629042988e+01 -1.8308000934088442e+00  -5.6950390781234610e+00 -3.6901532410737836e+01 -1.7894369941379180e+00  -2.1410201253149630e+00 -3.5172327347634237e+01 -1.7463073957097857e+00  1.2408654877987368e+00 -3.3384738117281984e+01 -1.7017372387675183e+00  4.4491914902731153e+00 -3.1530877471569429e+01 -1.6533503307870758e+00  7.4758702976042581e+00 -2.9598030811761710e+01 -1.5961813859473906e+00  1.0301640074007999e+01 -2.7574941071315578e+01 -1.5244029178530976e+00  1.2897552460417829e+01 -2.5459560793770546e+01 -1.4347977477206915e+00  1.5233909594608152e+01 -2.3263657291835408e+01 -1.3290178968490300e+00  1.7290346684090082e+01 -2.1010977542957129e+01 -1.2120050296436022e+00  1.9059440768399988e+01 -1.8731055696132699e+01 -1.0884598183637535e+00  2.0543810974446256e+01 -1.6453892790643668e+01 -9.6110232888658509e-01  2.1752436656788280e+01 -1.4208223640384903e+01 -8.3191842786787973e-01  2.2701312081899346e+01 -1.2021251055187328e+01 -7.0540788112069353e-01  2.3420765452786757e+01 -9.9140931764770617e+00 -5.9217535803555432e-01  2.3968020108077358e+01 -7.8860497010774520e+00 -5.0956175159842843e-01  2.4440120015336159e+01 -5.8838807071518646e+00 -4.7094796498955682e-01  -2.7192313207669297e+01 -4.0380944954469015e+01 -1.8277184020019190e+00  -2.2994376354300851e+01 -3.9021454853666093e+01 -1.8670454600919335e+00  -1.8856094102929760e+01 -3.7666952835540613e+01 -1.8699472463363231e+00  -1.4843432637147730e+01 -3.6275208264246153e+01 -1.8453515728899561e+00  -1.0989157010289119e+01 -3.4829250214320737e+01 -1.8062376158858744e+00  -7.3069735511688796e+00 -3.3326250189251788e+01 -1.7609037296257439e+00  -3.8012656657368118e+00 -3.1767002096761711e+01 -1.7130779056690539e+00  -4.7328461528555643e-01 -3.0150521970864048e+01 -1.6632586662255837e+00  2.6746776472002090e+00 -2.8472766827342589e+01 -1.6093983049014313e+00  5.6353326226357634e+00 -2.6728304235960803e+01 -1.5472596348927705e+00  8.3932905104733901e+00 -2.4913549115321594e+01 -1.4718087601032832e+00  1.0926030310728120e+01 -2.3030147261988645e+01 -1.3799967193872038e+00  1.3210416421107038e+01 -2.1086952573540387e+01 -1.2728259240143800e+00  1.5230416449391997e+01 -1.9099738431819588e+01 -1.1543837100296452e+00  1.6979914230284056e+01 -1.7089001885708502e+01 -1.0289397693586368e+00  1.8460178390152155e+01 -1.5077202369976966e+01 -8.9929317525149277e-01  1.9676739844636764e+01 -1.3086423749395685e+01 -7.6784881126454707e-01  2.0640455840857204e+01 -1.1135657343381038e+01 -6.3978709609816764e-01  2.1375517836789765e+01 -9.2349630277604220e+00 -5.2665115032487786e-01  2.1934289453537101e+01 -7.3734529738785755e+00 -4.4674723896529445e-01  2.2416425069613677e+01 -5.5004859391759391e+00 -4.1186954176474555e-01  -2.8547595389793884e+01 -3.6091242702441491e+01 -1.8021182407024277e+00  -2.4363270506077818e+01 -3.4852329939194213e+01 -1.8433143987216321e+00  -2.0234557469872680e+01 -3.3627460791018734e+01 -1.8477803819184544e+00  -1.6235469020284025e+01 -3.2382033033046682e+01 -1.8227377919081991e+00  -1.2402402841268657e+01 -3.1096830411729858e+01 -1.7811362870224068e+00  -8.7491071803550238e+00 -2.9763555726639872e+01 -1.7317616703122978e+00  -5.2791465849361678e+00 -2.8379047462445467e+01 -1.6786525292209278e+00  -1.9933336715561143e+00 -2.6941474893220636e+01 -1.6225313316497236e+00  1.1062505140457157e+00 -2.5449055785847634e+01 -1.5618594435078894e+00  4.0134382342595334e+00 -2.3900807052882236e+01 -1.4934629352488358e+00  6.7160054948324621e+00 -2.2297719594866535e+01 -1.4136091763855081e+00  9.1964514385643970e+00 -2.0643641505690869e+01 -1.3199081879618340e+00  1.1436607263523307e+01 -1.8945679328597947e+01 -1.2128031014873801e+00  1.3423272157525066e+01 -1.7214376279083556e+01 -1.0950887698571221e+00  1.5150456251256710e+01 -1.5463449972582554e+01 -9.6999456246138260e-01  1.6617578529820673e+01 -1.3708635379009639e+01 -8.4001992609184972e-01  1.7827276294710714e+01 -1.1965533191529845e+01 -7.0788098296597224e-01  1.8787272967577824e+01 -1.0246257337216029e+01 -5.7938118303539043e-01  1.9519422751074984e+01 -8.5540571569361479e+00 -4.6677778072600401e-01  2.0076103102175626e+01 -6.8753222002688297e+00 -3.8892933555106401e-01  2.0560824703446489e+01 -5.1707233943732325e+00 -3.5665814906694143e-01  -2.9757530557727062e+01 -3.1771832181340475e+01 -1.7807295004016761e+00  -2.5584634885002245e+01 -3.0676835867016575e+01 -1.8225710153623245e+00  -2.1462831808413132e+01 -2.9596732640285161e+01 -1.8272913595691589e+00  -1.7471560105764109e+01 -2.8504909716273733e+01 -1.8012226453421643e+00  -1.3651163051994409e+01 -2.7383764823670731e+01 -1.7571380859210890e+00  -1.0017055383646685e+01 -2.6223355155056229e+01 -1.7039019741617309e+00  -6.5730429408710531e+00 -2.5018597873392796e+01 -1.6456962112016096e+00  -3.3197625765593841e+00 -2.3767118265517393e+01 -1.5834664758512460e+00  -2.5897541015198638e-01 -2.2468159129824183e+01 -1.5161887960847722e+00  2.6042426098913940e+00 -2.1122889949320722e+01 -1.4416892589334602e+00  5.2603143402954053e+00 -1.9734298019319318e+01 -1.3574630631282893e+00  7.6958394597397088e+00 -1.8306924678250134e+01 -1.2618556484372399e+00  9.8967128602824719e+00 -1.6846600790531600e+01 -1.1549738155490257e+00  1.1851951768673711e+01 -1.5360664849236832e+01 -1.0384724457073446e+00  1.3555401411283976e+01 -1.3858315299772130e+01 -9.1449099963054681e-01  1.5004771579773616e+01 -1.2350164372150115e+01 -7.8506214237161687e-01  1.6200611337603068e+01 -1.0846516491671187e+01 -6.5303810564655651e-01  1.7149066972020222e+01 -9.3543971215965307e+00 -5.2465818462451719e-01  1.7871626909023416e+01 -7.8734322441316094e+00 -4.1262352879495379e-01  1.8422006105969142e+01 -6.3911525144984536e+00 -3.3598393921788094e-01  1.8906178520078218e+01 -4.8802150829782009e+00 -3.0489418872920143e-01  -3.0803244823964810e+01 -2.7430751128377022e+01 -1.7642227977470699e+00  -2.6639880696519956e+01 -2.6496304157905733e+01 -1.8058873933615291e+00  -2.2523914455927525e+01 -2.5574288749517635e+01 -1.8099653082022391e+00  -1.8538278426172965e+01 -2.4644799688155050e+01 -1.7823111822607212e+00  -1.4726475136044039e+01 -2.3693149775383542e+01 -1.7356141776581748e+00  -1.1105909680120835e+01 -2.2709892017612823e+01 -1.6787423596765034e+00  -7.6812954370376136e+00 -2.1689579105980794e+01 -1.6159544247461923e+00  -4.4535022773189477e+00 -2.0629735370966849e+01 -1.5483963034512025e+00  -1.4241286327102669e+00 -1.9529856684064825e+01 -1.4754533937229430e+00  1.4027161021045786e+00 -1.8391891735069603e+01 -1.3957203385800943e+00  4.0196361551917743e+00 -1.7219221342621985e+01 -1.3076015683472488e+00  6.4164736381865364e+00 -1.6016076922504642e+01 -1.2100190653423935e+00  8.5823480522129234e+00 -1.4787154743946079e+01 -1.1029156093598318e+00  1.0508122858233893e+01 -1.3537765227579433e+01 -9.8716766359165597e-01  1.2187645986261785e+01 -1.2274203098887767e+01 -8.6408614195999989e-01  1.3617459617943926e+01 -1.1003506711633765e+01 -7.3527079800969430e-01  1.4796822177074043e+01 -9.7321550639791052e+00 -6.0357692338007618e-01  1.5731241953658596e+01 -8.4638192223663822e+00 -4.7546954425725291e-01  1.6442594502411019e+01 -7.1965898574516824e+00 -3.6384822540920975e-01  1.6985875484672569e+01 -5.9205916922674104e+00 -2.8772173356948066e-01  1.7468041646515466e+01 -4.6182855574293784e+00 -2.5675831514985942e-01  -3.1673503104372244e+01 -2.3074847236427633e+01 -1.7530525137188113e+00  -2.7517817139499623e+01 -2.2312608391023019e+01 -1.7939912169985834e+00  -2.3406893054906416e+01 -2.1559546128274725e+01 -1.7968381214673013e+00  -1.9425984453522510e+01 -2.0800799477883650e+01 -1.7671792442371066e+00  -1.5620914401961221e+01 -2.0024710656392084e+01 -1.7177231046028740e+00  -1.2010826637207355e+01 -1.9223248438123949e+01 -1.6573850402793227e+00  -8.6015188055225558e+00 -1.8391469471851384e+01 -1.5905237786752213e+00  -5.3942885608118845e+00 -1.7527197348801746e+01 -1.5184917347326428e+00  -2.3907559621082890e+00 -1.6629694943362153e+01 -1.4409180943521847e+00  4.0580938758402485e-01 -1.5701175462419311e+01 -1.3569224403914377e+00  2.9897910916882111e+00 -1.4744605254912640e+01 -1.2654879540464137e+00  5.3535090104336565e+00 -1.3763391074051009e+01 -1.1659124990122658e+00  7.4885332684443604e+00 -1.2761140284938056e+01 -1.0580731389963416e+00  9.3872483858970295e+00 -1.1741734480702318e+01 -9.4239393350678291e-01  1.1043752477619732e+01 -1.0709543304922276e+01 -8.1966351190023423e-01  1.2454011882073505e+01 -9.6692054223138335e+00 -6.9116507846053732e-01  1.3616646906124314e+01 -8.6246734969357810e+00 -5.5969015437832492e-01  1.4537033245128800e+01 -7.5776700318585100e+00 -4.3176752829238191e-01  1.5237576268000804e+01 -6.5260109555157086e+00 -3.2031492422232083e-01  1.5774095010582426e+01 -5.4626463681093673e+00 -2.4417192887367181e-01  1.6253512694938617e+01 -4.3772237983094309e+00 -2.1264371963020171e-01  -3.2361387220579424e+01 -1.8708700591495962e+01 -1.7476661921196537e+00  -2.8211430612479436e+01 -1.8127131706641759e+01 -1.7875354966671126e+00  -2.4104637935986791e+01 -1.7551652271454568e+01 -1.7888040332592661e+00  -2.0127922958959363e+01 -1.6971027620933537e+01 -1.7568659218395373e+00  -1.6328736027324737e+01 -1.6376331066134110e+01 -1.7045133881867323e+00  -1.2727457648194648e+01 -1.5761151951825589e+01 -1.6407518221583510e+00  -9.3308681527483124e+00 -1.5121359304599562e+01 -1.5700924429667877e+00  -6.1407131412889839e+00 -1.4455419017530076e+01 -1.4942389979069919e+00  -3.1588752570971956e+00 -1.3761936161797726e+01 -1.4128551664807578e+00  -3.8781336126206656e-01 -1.3043647835197211e+01 -1.3253956810806828e+00  2.1683613057381304e+00 -1.2302695127185149e+01 -1.2311391319056815e+00  4.5038349807502458e+00 -1.1541418181862921e+01 -1.1295996295492507e+00  6.6119896337550896e+00 -1.0762364621999923e+01 -1.0206420365624049e+00  8.4864321599556245e+00 -9.9682814369211226e+00 -9.0445972416151932e-01  1.0121674555252122e+01 -9.1621729725041838e+00 -7.8155020208527703e-01  1.1513549749156097e+01 -8.3470800981780950e+00 -6.5299276850925769e-01  1.2660481987598782e+01 -7.5254065884723564e+00 -5.2149493196318109e-01  1.3567948654897409e+01 -6.6979333216234620e+00 -3.9355318513716470e-01  1.4258786586825357e+01 -5.8629041680951328e+00 -2.8199731863174715e-01  1.4789180890910371e+01 -5.0158410521436894e+00 -2.0544256686548198e-01  1.5265458050982051e+01 -4.1514195236967995e+00 -1.7291804648992845e-01  -3.2861688272681377e+01 -1.4334352730678686e+01 -1.7483847407016919e+00  -2.8715596066880867e+01 -1.3940119544891630e+01 -1.7870489519807489e+00  -2.4612032971343623e+01 -1.3548905020507965e+01 -1.7866577072094028e+00  -2.0639193547121035e+01 -1.3152465106669123e+01 -1.7524117235945578e+00  -1.6845591956971912e+01 -1.2744378192603770e+01 -1.6971759257925048e+00  -1.3252334497625846e+01 -1.2319845623849830e+01 -1.6300374240098245e+00  -9.8666583636639338e+00 -1.1875273360015166e+01 -1.5554715458540698e+00  -6.6907013934480544e+00 -1.1409708739729339e+01 -1.4760118371913036e+00  -3.7275053666944546e+00 -1.0920815347039827e+01 -1.3912022807434541e+00  -9.7839029944106948e-01 -1.0412993487992560e+01 -1.3008311546631153e+00  1.5540565061178271e+00 -9.8870870960396520e+00 -1.2041209842150709e+00  3.8654300539925357e+00 -9.3442072302985437e+00 -1.1006689728962975e+00  5.9504162539383083e+00 -8.7858744853326129e+00 -9.9035796719783054e-01  7.8035690741918975e+00 -8.2138608158031943e+00 -8.7328154213564013e-01  9.4198618066237358e+00 -7.6301347850060726e+00 -7.4978850167694078e-01  1.0795240389598842e+01 -7.0366661575817870e+00 -6.2083397459637801e-01  1.1928169483970954e+01 -6.4349807286112473e+00 -4.8904398986857811e-01  1.2824294888658343e+01 -5.8255767463868420e+00 -3.6083866328747105e-01  1.3506718750794057e+01 -5.2074870779742737e+00 -2.4891238644718638e-01  1.4031654045677701e+01 -4.5784472147664310e+00 -1.7164651524304583e-01  1.4504589532268621e+01 -3.9366522655908271e+00 -1.3785823932068453e-01  -3.3168635792539732e+01 -9.9526263141306099e+00 -1.7548888503094375e+00  -2.9025386040538624e+01 -9.7511243845967357e+00 -1.7923837387657398e+00  -2.4924727643523362e+01 -9.5487345190343724e+00 -1.7904638149172278e+00  -2.0955924327425585e+01 -9.3405059251476175e+00 -1.7542213676720786e+00  -1.7168083129302154e+01 -9.1226539219033480e+00 -1.6965859337795608e+00  -1.3582736575271277e+01 -8.8923863416005329e+00 -1.6265779527443582e+00  -1.0207786822157139e+01 -8.6476659651444834e+00 -1.5486330165044657e+00  -7.0420971157353538e+00 -8.3842684424141947e+00 -1.4652116228110896e+00  -4.0950708957183002e+00 -8.1005740536230224e+00 -1.3761214682549265e+00  -1.3656370563027884e+00 -7.8037543672999146e+00 -1.2829658976994853e+00  1.1461527441157446e+00 -7.4926998870819137e+00 -1.1840120969292640e+00  3.4368937448029406e+00 -7.1672502015979465e+00 -1.0786882070602455e+00  5.5020947108650304e+00 -6.8279853865379865e+00 -9.6688764154669260e-01  7.3369782311717282e+00 -6.4758212530335504e+00 -8.4866874100781142e-01  8.9369302984004371e+00 -6.1118996455928398e+00 -7.2430719633267882e-01  1.0298096206652486e+01 -5.7374569362561392e+00 -5.9468158668145621e-01  1.1419059000983912e+01 -5.3535712733001812e+00 -4.6234627492844715e-01  1.2305596380213858e+01 -4.9608615274032708e+00 -3.3363200029063672e-01  1.2980903280178207e+01 -4.5593273403723931e+00 -2.2108712597665123e-01  1.3500999829571496e+01 -4.1486284195422911e+00 -1.4287507360444288e-01  1.3970492868502800e+01 -3.7295608148319137e+00 -1.0765308370389083e-01  -3.3275444334024371e+01 -5.5665784859536389e+00 -1.7661666957957416e+00  -2.9135476033221742e+01 -5.5615243803626795e+00 -1.8024322754295097e+00  -2.5038407452171775e+01 -5.5505134963019724e+00 -1.7988955321800342e+00  -2.1074587220898820e+01 -5.5322373426288554e+00 -1.7607455287583991e+00  -1.7293571354758736e+01 -5.5054110430345995e+00 -1.7011379220522329e+00  -1.3716910617370871e+01 -5.4689999397689624e+00 -1.6292800028946652e+00  -1.0351333533694509e+01 -5.4220932736801553e+00 -1.5497345174447943e+00  -7.1957336682598996e+00 -5.3643333592786844e+00 -1.4654507281395173e+00  -4.2605849003709393e+00 -5.2942600111558944e+00 -1.3682687797169526e+00  -1.5497506171011746e+00 -5.2111217296222048e+00 -1.2717208033807461e+00  9.4381492575697368e-01 -5.1155351898432633e+00 -1.1705199414375378e+00  3.2170248089652569e+00 -5.0071810660972771e+00 -1.0633254426707426e+00  5.2656153098188616e+00 -4.8860271893898126e+00 -9.4995078153064194e-01  7.0852129150290697e+00 -4.7522738769547921e+00 -8.3043102997290319e-01  8.6715418588553330e+00 -4.6063757740325570e+00 -7.0500135737950909e-01  1.0020950963925317e+01 -4.4490360436848366e+00 -5.7448853582955695e-01  1.1132125299870696e+01 -4.2811350071521730e+00 -4.4138470210550390e-01  1.2010877001953670e+01 -4.1036420701924996e+00 -3.1193279789486628e-01  1.2680324193506440e+01 -3.9176216639447321e+00 -1.9854350070168850e-01  1.3196147666979289e+01 -3.7245070791880583e+00 -1.1919077964336741e-01  1.3662129577589614e+01 -3.5272583835241758e+00 -8.2419963590966316e-02  -3.3177475973828010e+01 -1.1829186341162383e+00 -1.7817232280062276e+00  -2.9041708936413954e+01 -1.3759237201868337e+00 -1.8164360092278047e+00  -2.4948975311499453e+01 -1.5580842300647029e+00 -1.8108033125244052e+00  -2.0990500538888064e+01 -1.7316234914190494e+00 -1.7701343137621701e+00  -1.7216249223748569e+01 -1.8978067973770787e+00 -1.7076646856064130e+00  -1.3647979723212787e+01 -2.0572960086899266e+00 -1.6325951426092689e+00  -1.0292897893910657e+01 -2.2102442312753712e+00 -1.5494400792552634e+00  -7.1533084651832617e+00 -2.3563648781058246e+00 -1.4599595969311510e+00  -4.2321903533442145e+00 -2.4991421543384127e+00 -1.3646641948152154e+00  -1.5348524122779388e+00 -2.6322862017025570e+00 -1.2664922741358509e+00  9.4522143266769287e-01 -2.7529241956434807e+00 -1.1633599018045624e+00  3.2046613249497939e+00 -2.8616519242168357e+00 -1.0543399241529481e+00  5.2398437977998551e+00 -2.9581364334218825e+00 -9.3934125382343181e-01  7.0470327710335843e+00 -3.0419367123895364e+00 -8.1841246877525176e-01  8.6223872444902554e+00 -3.1128638931938588e+00 -6.9176817322829609e-01  9.9624824810986414e+00 -3.1711565333316263e+00 -5.6019570177208644e-01  1.1066053462252688e+01 -3.2175960412296991e+00 -4.2613076670245942e-01  1.1938811923201293e+01 -3.2536079989304136e+00 -2.9573391715270236e-01  1.2603617297395489e+01 -3.2813950150397306e+00 -1.8129328997688354e-01  1.3115683933028794e+01 -3.3041743310254170e+00 -1.0062680186933379e-01  1.3578055768445996e+01 -3.3270347424359086e+00 -6.2218594863662505e-02  -3.2876158747125146e+01 3.1922542987042504e+00 -1.8023104858184142e+00  -2.8744724376571391e+01 2.8016409599272176e+00 -1.8351937593318137e+00  -2.4657061801301893e+01 2.4256476634705972e+00 -1.8273160903180141e+00  -2.0704937200290480e+01 2.0589295742032552e+00 -1.7841257609507064e+00  -1.6938638680792639e+01 1.6976555456675730e+00 -1.7190067459990277e+00  -1.3380077523304500e+01 1.3394823941817531e+00 -1.6413431685894486e+00  -1.0036624878552558e+01 9.8341408342599634e-01 -1.5558658935016416e+00  -6.9104196951446752e+00 6.2938035986605789e-01 -1.4645964904266193e+00  -4.0028776725102917e+00 2.7705895820704390e-01 -1.3684672196048173e+00  -1.3153051629813333e+00 -6.7485228233014810e-02 -1.2683784558939777e+00  1.1531781302426982e+00 -4.0338129185496913e-01 -1.1628271969143407e+00  3.4007163260777977e+00 -7.2900248505164478e-01 -1.0517289577769871e+00  5.4245838324646130e+00 -1.0429547140266786e+00 -9.3496304209256653e-01  7.2215799839315933e+00 -1.3439263628765119e+00 -8.1250703033871718e-01  8.7882101984302796e+00 -1.6309683130238617e+00 -6.8452302903647610e-01  1.0121205174742148e+01 -1.9037764089359765e+00 -5.5174761473747569e-01  1.1219240808953794e+01 -2.1629854596726492e+00 -4.1655540342313035e-01  1.2087748511729250e+01 -2.4104720425606194e+00 -2.8502579115044518e-01  1.2749104365466005e+01 -2.6496401475388445e+00 -1.6933804074542125e-01  1.3257888568467504e+01 -2.8856630605260678e+00 -8.7187789429503393e-02  1.3716458146973299e+01 -3.1260918858873805e+00 -4.7057769205367965e-02  -3.2375162742254183e+01 7.5562324431911652e+00 -1.8287165790025970e+00  -2.8247022108885048e+01 6.9700167449281967e+00 -1.8596