<?xml version="1.0"?>
<VTKFile type="UnstructuredGrid"  version="0.1"  >
<UnstructuredGrid>
<Piece  NumberOfPoints="9261" NumberOfCells="48000">
<Points>
<DataArray  type="Float64"  NumberOfComponents="3"  format="ascii">0 0 0  0.015 0 0  0.03 0 0  0.045 0 0  0.06 0 0  0.075 0 0  0.09 0 0  0.105 0 0  0.12 0 0  0.135 0 0  0.15 0 0  0.165 0 0  0.18 0 0  0.195 0 0  0.21 0 0  0.225 0 0  0.24 0 0  0.255 0 0  0.27 0 0  0.285 0 0  0.3 0 0  0 0.015 0  0.015 0.015 0  0.03 0.015 0  0.045 0.015 0  0.06 0.015 0  0.075 0.015 0  0.09 0.015 0  0.105 0.015 0  0.12 0.015 0  0.135 0.015 0  0.15 0.015 0  0.165 0.015 0  0.18 0.015 0  0.195 0.015 0  0.21 0.015 0  0.225 0.015 0  0.24 0.015 0  0.255 0.015 0  0.27 0.015 0  0.285 0.015 0  0.3 0.015 0  0 0.03 0  0.015 0.03 0  0.03 0.03 0  0.045 0.03 0  0.06 0.03 0  0.075 0.03 0  0.09 0.03 0  0.105 0.03 0  0.12 0.03 0  0.135 0.03 0  0.15 0.03 0  0.165 0.03 0  0.18 0.03 0  0.195 0.03 0  0.21 0.03 0  0.225 0.03 0  0.24 0.03 0  0.255 0.03 0  0.27 0.03 0  0.285 0.03 0  0.3 0.03 0  0 0.045 0  0.015 0.045 0  0.03 0.045 0  0.045 0.045 0  0.06 0.045 0  0.075 0.045 0  0.09 0.045 0  0.105 0.045 0  0.12 0.045 0  0.135 0.045 0  0.15 0.045 0  0.165 0.045 0  0.18 0.045 0  0.195 0.045 0  0.21 0.045 0  0.225 0.045 0  0.24 0.045 0  0.255 0.045 0  0.27 0.045 0  0.285 0.045 0  0.3 0.045 0  0 0.06 0  0.015 0.06 0  0.03 0.06 0  0.045 0.06 0  0.06 0.06 0  0.075 0.06 0  0.09 0.06 0  0.105 0.06 0  0.12 0.06 0  0.135 0.06 0  0.15 0.06 0  0.165 0.06 0  0.18 0.06 0  0.195 0.06 0  0.21 0.06 0  0.225 0.06 0  0.24 0.06 0  0.255 0.06 0  0.27 0.06 0  0.285 0.06 0  0.3 0.06 0  0 0.075 0  0.015 0.075 0  0.03 0.075 0  0.045 0.075 0  0.06 0.075 0  0.075 0.075 0  0.09 0.075 0  0.105 0.075 0  0.12 0.075 0  0.135 0.075 0  0.15 0.075 0  0.165 0.075 0  0.18 0.075 0  0.195 0.075 0  0.21 0.075 0  0.225 0.075 0  0.24 0.075 0  0.255 0.075 0  0.27 0.075 0  0.285 0.075 0  0.3 0.075 0  0 0.09 0  0.015 0.09 0  0.03 0.09 0  0.045 0.09 0  0.06 0.09 0  0.075 0.09 0  0.09 0.09 0  0.105 0.09 0  0.12 0.09 0  0.135 0.09 0  0.15 0.09 0  0.165 0.09 0  0.18 0.09 0  0.195 0.09 0  0.21 0.09 0  0.225 0.09 0  0.24 0.09 0  0.255 0.09 0  0.27 0.09 0  0.285 0.09 0  0.3 0.09 0  0 0.105 0  0.015 0.105 0  0.03 0.105 0  0.045 0.105 0  0.06 0.105 0  0.075 0.105 0  0.09 0.105 0  0.105 0.105 0  0.12 0.105 0  0.135 0.105 0  0.15 0.105 0  0.165 0.105 0  0.18 0.105 0  0.195 0.105 0  0.21 0.105 0  0.225 0.105 0  0.24 0.105 0  0.255 0.105 0  0.27 0.105 0  0.285 0.105 0  0.3 0.105 0  0 0.12 0  0.015 0.12 0  0.03 0.12 0  0.045 0.12 0  0.06 0.12 0  0.075 0.12 0  0.09 0.12 0  0.105 0.12 0  0.12 0.12 0  0.135 0.12 0  0.15 0.12 0  0.165 0.12 0  0.18 0.12 0  0.195 0.12 0  0.21 0.12 0  0.225 0.12 0  0.24 0.12 0  0.255 0.12 0  0.27 0.12 0  0.285 0.12 0  0.3 0.12 0  0 0.135 0  0.015 0.135 0  0.03 0.135 0  0.045 0.135 0  0.06 0.135 0  0.075 0.135 0  0.09 0.135 0  0.105 0.135 0  0.12 0.135 0  0.135 0.135 0  0.15 0.135 0  0.165 0.135 0  0.18 0.135 0  0.195 0.135 0  0.21 0.135 0  0.225 0.135 0  0.24 0.135 0  0.255 0.135 0  0.27 0.135 0  0.285 0.135 0  0.3 0.135 0  0 0.15 0  0.015 0.15 0  0.03 0.15 0  0.045 0.15 0  0.06 0.15 0  0.075 0.15 0  0.09 0.15 0  0.105 0.15 0  0.12 0.15 0  0.135 0.15 0  0.15 0.15 0  0.165 0.15 0  0.18 0.15 0  0.195 0.15 0  0.21 0.15 0  0.225 0.15 0  0.24 0.15 0  0.255 0.15 0  0.27 0.15 0  0.285 0.15 0  0.3 0.15 0  0 0.165 0  0.015 0.165 0  0.03 0.165 0  0.045 0.165 0  0.06 0.165 0  0.075 0.165 0  0.09 0.165 0  0.105 0.165 0  0.12 0.165 0  0.135 0.165 0  0.15 0.165 0  0.165 0.165 0  0.18 0.165 0  0.195 0.165 0  0.21 0.165 0  0.225 0.165 0  0.24 0.165 0  0.255 0.165 0  0.27 0.165 0  0.285 0.165 0  0.3 0.165 0  0 0.18 0  0.015 0.18 0  0.03 0.18 0  0.045 0.18 0  0.06 0.18 0  0.075 0.18 0  0.09 0.18 0  0.105 0.18 0  0.12 0.18 0  0.135 0.18 0  0.15 0.18 0  0.165 0.18 0  0.18 0.18 0  0.195 0.18 0  0.21 0.18 0  0.225 0.18 0  0.24 0.18 0  0.255 0.18 0  0.27 0.18 0  0.285 0.18 0  0.3 0.18 0  0 0.195 0  0.015 0.195 0  0.03 0.195 0  0.045 0.195 0  0.06 0.195 0  0.075 0.195 0  0.09 0.195 0  0.105 0.195 0  0.12 0.195 0  0.135 0.195 0  0.15 0.195 0  0.165 0.195 0  0.18 0.195 0  0.195 0.195 0  0.21 0.195 0  0.225 0.195 0  0.24 0.195 0  0.255 0.195 0  0.27 0.195 0  0.285 0.195 0  0.3 0.195 0  0 0.21 0  0.015 0.21 0  0.03 0.21 0  0.045 0.21 0  0.06 0.21 0  0.075 0.21 0  0.09 0.21 0  0.105 0.21 0  0.12 0.21 0  0.135 0.21 0  0.15 0.21 0  0.165 0.21 0  0.18 0.21 0  0.195 0.21 0  0.21 0.21 0  0.225 0.21 0  0.24 0.21 0  0.255 0.21 0  0.27 0.21 0  0.285 0.21 0  0.3 0.21 0  0 0.225 0  0.015 0.225 0  0.03 0.225 0  0.045 0.225 0  0.06 0.225 0  0.075 0.225 0  0.09 0.225 0  0.105 0.225 0  0.12 0.225 0  0.135 0.225 0  0.15 0.225 0  0.165 0.225 0  0.18 0.225 0  0.195 0.225 0  0.21 0.225 0  0.225 0.225 0  0.24 0.225 0  0.255 0.225 0  0.27 0.225 0  0.285 0.225 0  0.3 0.225 0  0 0.24 0  0.015 0.24 0  0.03 0.24 0  0.045 0.24 0  0.06 0.24 0  0.075 0.24 0  0.09 0.24 0  0.105 0.24 0  0.12 0.24 0  0.135 0.24 0  0.15 0.24 0  0.165 0.24 0  0.18 0.24 0  0.195 0.24 0  0.21 0.24 0  0.225 0.24 0  0.24 0.24 0  0.255 0.24 0  0.27 0.24 0  0.285 0.24 0  0.3 0.24 0  0 0.255 0  0.015 0.255 0  0.03 0.255 0  0.045 0.255 0  0.06 0.255 0  0.075 0.255 0  0.09 0.255 0  0.105 0.255 0  0.12 0.255 0  0.135 0.255 0  0.15 0.255 0  0.165 0.255 0  0.18 0.255 0  0.195 0.255 0  0.21 0.255 0  0.225 0.255 0  0.24 0.255 0  0.255 0.255 0  0.27 0.255 0  0.285 0.255 0  0.3 0.255 0  0 0.27 0  0.015 0.27 0  0.03 0.27 0  0.045 0.27 0  0.06 0.27 0  0.075 0.27 0  0.09 0.27 0  0.105 0.27 0  0.12 0.27 0  0.135 0.27 0  0.15 0.27 0  0.165 0.27 0  0.18 0.27 0  0.195 0.27 0  0.21 0.27 0  0.225 0.27 0  0.24 0.27 0  0.255 0.27 0  0.27 0.27 0  0.285 0.27 0  0.3 0.27 0  0 0.285 0  0.015 0.285 0  0.03 0.285 0  0.045 0.285 0  0.06 0.285 0  0.075 0.285 0  0.09 0.285 0  0.105 0.285 0  0.12 0.285 0  0.135 0.285 0  0.15 0.285 0  0.165 0.285 0  0.18 0.285 0  0.195 0.285 0  0.21 0.285 0  0.225 0.285 0  0.24 0.285 0  0.255 0.285 0  0.27 0.285 0  0.285 0.285 0  0.3 0.285 0  0 0.3 0  0.015 0.3 0  0.03 0.3 0  0.045 0.3 0  0.06 0.3 0  0.075 0.3 0  0.09 0.3 0  0.105 0.3 0  0.12 0.3 0  0.135 0.3 0  0.15 0.3 0  0.165 0.3 0  0.18 0.3 0  0.195 0.3 0  0.21 0.3 0  0.225 0.3 0  0.24 0.3 0  0.255 0.3 0  0.27 0.3 0  0.285 0.3 0  0.3 0.3 0  0 0 0.00075  0.015 0 0.00075  0.03 0 0.00075  0.045 0 0.00075  0.06 0 0.00075  0.075 0 0.00075  0.09 0 0.00075  0.105 0 0.00075  0.12 0 0.00075  0.135 0 0.00075  0.15 0 0.00075  0.165 0 0.00075  0.18 0 0.00075  0.195 0 0.00075  0.21 0 0.00075  0.225 0 0.00075  0.24 0 0.00075  0.255 0 0.00075  0.27 0 0.00075  0.285 0 0.00075  0.3 0 0.00075  0 0.015 0.00075  0.015 0.015 0.00075  0.03 0.015 0.00075  0.045 0.015 0.00075  0.06 0.015 0.00075  0.075 0.015 0.00075  0.09 0.015 0.00075  0.105 0.015 0.00075  0.12 0.015 0.00075  0.135 0.015 0.00075  0.15 0.015 0.00075  0.165 0.015 0.00075  0.18 0.015 0.00075  0.195 0.015 0.00075  0.21 0.015 0.00075  0.225 0.015 0.00075  0.24 0.015 0.00075  0.255 0.015 0.00075  0.27 0.015 0.00075  0.285 0.015 0.00075  0.3 0.015 0.00075  0 0.03 0.00075  0.015 0.03 0.00075  0.03 0.03 0.00075  0.045 0.03 0.00075  0.06 0.03 0.00075  0.075 0.03 0.00075  0.09 0.03 0.00075  0.105 0.03 0.00075  0.12 0.03 0.00075  0.135 0.03 0.00075  0.15 0.03 0.00075  0.165 0.03 0.00075  0.18 0.03 0.00075  0.195 0.03 0.00075  0.21 0.03 0.00075  0.225 0.03 0.00075  0.24 0.03 0.00075  0.255 0.03 0.00075  0.27 0.03 0.00075  0.285 0.03 0.00075  0.3 0.03 0.00075  0 0.045 0.00075  0.015 0.045 0.00075  0.03 0.045 0.00075  0.045 0.045 0.00075  0.06 0.045 0.00075  0.075 0.045 0.00075  0.09 0.045 0.00075  0.105 0.045 0.00075  0.12 0.045 0.00075  0.135 0.045 0.00075  0.15 0.045 0.00075  0.165 0.045 0.00075  0.18 0.045 0.00075  0.195 0.045 0.00075  0.21 0.045 0.00075  0.225 0.045 0.00075  0.24 0.045 0.00075  0.255 0.045 0.00075  0.27 0.045 0.00075  0.285 0.045 0.00075  0.3 0.045 0.00075  0 0.06 0.00075  0.015 0.06 0.00075  0.03 0.06 0.00075  0.045 0.06 0.00075  0.06 0.06 0.00075  0.075 0.06 0.00075  0.09 0.06 0.00075  0.105 0.06 0.00075  0.12 0.06 0.00075  0.135 0.06 0.00075  0.15 0.06 0.00075  0.165 0.06 0.00075  0.18 0.06 0.00075  0.195 0.06 0.00075  0.21 0.06 0.00075  0.225 0.06 0.00075  0.24 0.06 0.00075  0.255 0.06 0.00075  0.27 0.06 0.00075  0.285 0.06 0.00075  0.3 0.06 0.00075  0 0.075 0.00075  0.015 0.075 0.00075  0.03 0.075 0.00075  0.045 0.075 0.00075  0.06 0.075 0.00075  0.075 0.075 0.00075  0.09 0.075 0.00075  0.105 0.075 0.00075  0.12 0.075 0.00075  0.135 0.075 0.00075  0.15 0.075 0.00075  0.165 0.075 0.00075  0.18 0.075 0.00075  0.195 0.075 0.00075  0.21 0.075 0.00075  0.225 0.075 0.00075  0.24 0.075 0.00075  0.255 0.075 0.00075  0.27 0.075 0.00075  0.285 0.075 0.00075  0.3 0.075 0.00075  0 0.09 0.00075  0.015 0.09 0.00075  0.03 0.09 0.00075  0.045 0.09 0.00075  0.06 0.09 0.00075  0.075 0.09 0.00075  0.09 0.09 0.00075  0.105 0.09 0.00075  0.12 0.09 0.00075  0.135 0.09 0.00075  0.15 0.09 0.00075  0.165 0.09 0.00075  0.18 0.09 0.00075  0.195 0.09 0.00075  0.21 0.09 0.00075  0.225 0.09 0.00075  0.24 0.09 0.00075  0.255 0.09 0.00075  0.27 0.09 0.00075  0.285 0.09 0.00075  0.3 0.09 0.00075  0 0.105 0.00075  0.015 0.105 0.00075  0.03 0.105 0.00075  0.045 0.105 0.00075  0.06 0.105 0.00075  0.075 0.105 0.00075  0.09 0.105 0.00075  0.105 0.105 0.00075  0.12 0.105 0.00075  0.135 0.105 0.00075  0.15 0.105 0.00075  0.165 0.105 0.00075  0.18 0.105 0.00075  0.195 0.105 0.00075  0.21 0.105 0.00075  0.225 0.105 0.00075  0.24 0.105 0.00075  0.255 0.105 0.00075  0.27 0.105 0.00075  0.285 0.105 0.00075  0.3 0.105 0.00075  0 0.12 0.00075  0.015 0.12 0.00075  0.03 0.12 0.00075  0.045 0.12 0.00075  0.06 0.12 0.00075  0.075 0.12 0.00075  0.09 0.12 0.00075  0.105 0.12 0.00075  0.12 0.12 0.00075  0.135 0.12 0.00075  0.15 0.12 0.00075  0.165 0.12 0.00075  0.18 0.12 0.00075  0.195 0.12 0.00075  0.21 0.12 0.00075  0.225 0.12 0.00075  0.24 0.12 0.00075  0.255 0.12 0.00075  0.27 0.12 0.00075  0.285 0.12 0.00075  0.3 0.12 0.00075  0 0.135 0.00075  0.015 0.135 0.00075  0.03 0.135 0.00075  0.045 0.135 0.00075  0.06 0.135 0.00075  0.075 0.135 0.00075  0.09 0.1
[...]
<PointData  Scalars="f_1662"> 
<DataArray  type="Float64"  Name="f_1662"  format="ascii">4.7141022660284462e-10  -6.6697813872715690e-10  -4.0878120060849048e-10  -1.0878889186747140e-10  3.0595726216438524e-12  2.6310017848017122e-11  2.7559291656735260e-11  2.7779315900253068e-11  3.3273238585760623e-11  2.4995260419076493e-11  -1.0417815459833519e-10  -6.4575567547257968e-11  2.2243486128578957e-09  -5.5203551197359560e-09  5.1779305411271821e-09  -3.4531041138881049e-10  -1.5430764088700168e-09  -2.7277617679183682e-10  4.4675976324578877e-10  1.4992238569432839e-10  3.2062477032153919e-10  -1.0261079752203883e-09  -3.9582392919825378e-09  -1.6047576739570001e-09  -2.1044425715098729e-10  1.6577059586548603e-10  2.1139701665665668e-10  2.0305790153270376e-10  1.9885033106218938e-10  1.9544124508141839e-10  1.3179321535121778e-10  -4.0533787661533207e-11  8.1120021600354842e-10  4.2665696537141712e-09  -1.7239282113224797e-08  2.3464306099212704e-08  -6.8255687458064698e-09  -6.4917578255505785e-09  6.4669388350938394e-10  2.6043331415831552e-09  9.1291363370498554e-10  1.1739708283332946e-09  -4.1622277674556677e-08  -3.7967938759097540e-08  -9.9648089350235456e-09  9.8587703754777960e-10  3.0423763044312521e-09  3.0532239688781723e-09  2.9107074029960285e-09  2.8423697933533427e-09  2.7612551805457209e-09  2.5434520976389281e-09  2.8873964708846010e-09  7.8953149899124613e-09  9.0679716643891697e-09  -8.5579921917412234e-08  1.8078446102757795e-07  -9.7203491901174282e-08  -4.0028104422260972e-08  2.3016339062310610e-08  2.6507830901808960e-08  9.2454972580298408e-09  8.7722671019024507e-09  -6.2894441839842101e-07  -3.1175464866932792e-07  -3.4436646749532267e-08  3.9367435380588414e-08  4.6339938434753765e-08  4.3895975642545886e-08  4.2392568172588140e-08  4.1839391976473151e-08  4.1548489496242011e-08  4.1866660468853195e-08  4.6734888273548032e-08  5.9084080383511551e-08  -1.0499959215075930e-09  -3.0605713385422876e-07  1.2545640810791655e-06  -1.0684657547507692e-06  -1.0834170538037198e-07  3.5045208580633662e-07  2.5098986068424906e-07  8.2115787087319634e-08  6.1758247523716261e-08  -7.1931343011073958e-06  -2.0286857721051386e-06  3.0408232873108307e-07  6.8937517376972188e-07  6.6837517158905812e-07  6.3518615553107742e-07  6.2288442006235213e-07  6.1966853625285900e-07  6.1979736662299597e-07  6.2466655112704862e-07  6.3699256558900186e-07  5.9996842607167137e-07  2.1152196131588106e-07  -4.2501921014004383e-08  7.5856311171065245e-06  -9.7728959708788971e-06  1.8670844627889143e-06  4.1605387059948947e-06  2.1924790807660165e-06  6.5461082627705785e-07  4.0317420493948970e-07  -6.8101622022384857e-05  -6.9562969542464065e-06  9.3135090408999306e-06  1.0257329979984597e-05  9.5841402575971541e-06  9.2751203074419416e-06  9.1898587964403419e-06  9.1722198261593148e-06  9.1720279362239548e-06  9.1725907928702269e-06  9.1123629600953171e-06  8.7239036057390488e-06  7.9198866029217011e-06  1.2564915798076415e-05  3.9430611481404330e-05  -7.4126494120376520e-05  4.4361238146012714e-05  4.2782353234273942e-05  1.7647346098626059e-05  4.7093611287844065e-06  2.4126002924694098e-06  -5.1985701436853737e-04  7.4012223661621717e-05  1.5643708711832787e-04  1.4630916666345255e-04  1.3852829634765205e-04  1.3621230929252868e-04  1.3570164977108978e-04  1.3560337084682814e-04  1.3556684943633233e-04  1.3546995786984989e-04  1.3516464376090882e-04  1.3491057833063972e-04  1.3955559757772334e-04  1.7026376929847047e-04  1.9690624708043527e-04  -4.1761793004587393e-04  6.3235464575099609e-04  3.9348472927255536e-04  1.2984323661058446e-04  3.0340355179671099e-05  1.2980905820506257e-05  -2.4861793329572271e-03  2.1848880177742151e-03  2.2725262616305215e-03  2.0793491202525027e-03  2.0143103025085478e-03  2.0000237489130059e-03  1.9974819449481104e-03  1.9970942013796109e-03  1.9970797251056185e-03  1.9973391502805214e-03  1.9988989720420179e-03  2.0065270112491836e-03  2.0333927180643174e-03  2.0600353263807592e-03  1.6379047322454738e-03  -6.7784829451792707e-04  7.3486842401691782e-03  3.2524222338404349e-03  8.5747592086068503e-04  1.7116977978628108e-04  6.0742538553747973e-05  1.1439801808523621e-02  3.5877961164630802e-02  3.1457905613378169e-02  2.9512724856237845e-02  2.9091717159383929e-02  2.9021590314531141e-02  2.9011635761757120e-02  2.9010384123855985e-02  2.9010214501776002e-02  2.9009922756021211e-02  2.9007598576470967e-02  2.8990240051189040e-02  2.8876683315550822e-02  2.8262159752186017e-02  2.5946405632289646e-02  2.4761571410570692e-02  7.4151156846640198e-02  2.3724362403733150e-02  4.8918437583734941e-03  8.0575031060729524e-04  2.3195847350819824e-04  5.2561545635184326e-01  4.8307465753885737e-01  4.1765231855795720e-01  4.0417549694880323e-01  4.0219445336653692e-01  4.0195132695765634e-01  4.0192546026253023e-01  4.0192309762905215e-01  4.0192292596704637e-01  4.0192297626152673e-01  4.0192393714007013e-01  4.0193557776418748e-01  4.0205406582383912e-01  4.0310403378256743e-01  4.1113054532294918e-01  4.6052011051469538e-01  6.4100519048577043e-01  1.4352260869271885e-01  2.2051528436566367e-02  2.8235519681226342e-03  6.2117120680482815e-04  7.9161081982294972e+00  5.1065769113507011e+00  4.6256837212551831e+00  4.5718857085116182e+00  4.5669617171268966e+00  4.5665976413166494e+00  4.5665806535264162e+00  4.5665813239657789e+00  4.5665816454477737e+00  4.5665817619959101e+00  4.5665822279534378e+00  4.5665845213820315e+00  4.5665829342827413e+00  4.5663440356635618e+00  4.5622477607124017e+00  4.5118212626939522e+00  4.0143395743360095e+00  5.7665747680667168e-01  5.8723519403989316e-02  4.8898606752107625e-03  5.7916487722847309e-04  1.3231277339548986e+00  3.4753888454144960e-01  4.1096230552848639e-01  4.4570268043585343e-01  4.5234365358653156e-01  4.5329811340316756e-01  4.5341459850256904e-01  4.5342704816315571e-01  4.5342820451812277e-01  4.5342829395091766e-01  4.5342819277972918e-01  4.5342620615581503e-01  4.5340103406385923e-01  4.5313741071728925e-01  4.5074295815680426e-01  4.3191210625122334e-01  3.1044067488325039e-01  -2.0750920547624155e-01  -5.5506733255177881e-02  -9.2288123833248626e-03  -2.4163396850130784e-03  1.5696151285262164e-01  -2.1796892459655794e-02  3.0109951021066141e-02  3.5245257676514055e-02  3.4361800970576735e-02  3.3969872044531307e-02  3.3884433481526116e-02  3.3870054656010833e-02  3.3867984873367549e-02  3.3867707909389963e-02  3.3867532118364033e-02  3.3866101676378969e-02  3.3853617764401885e-02  3.3755631478967527e-02  3.3072763359965729e-02  2.8987798369312295e-02  9.7332944724537480e-03  -4.4171175181808464e-02  2.2509417145177507e-03  2.7083106098866245e-03  1.4052858630815084e-03  1.5882966531465398e-02  -9.6750433684048721e-03  4.0449391540957570e-03  2.9073277644966825e-03  2.3847063531922848e-03  2.3393019308510159e-03  2.3484537566997288e-03  2.3529081094889139e-03  2.3539960504212250e-03  2.3541936382554867e-03  2.3541577111336094e-03  2.3536180518934149e-03  2.3497071282760360e-03  2.3243516019589745e-03  2.1795822656414956e-03  1.4861776740696592e-03  -1.0033899389317296e-03  -5.5204307366941430e-03  2.3572234269438595e-03  4.0924101717089743e-04  -7.9763258527877358e-05  1.4021573713435015e-03  -1.7606390399254404e-03  8.4905509170247388e-04  1.9364323202614929e-04  1.3450682098525436e-04  1.5411250263363865e-04  1.5989678433293443e-04  1.6046131957916929e-04  1.6037714647265078e-04  1.6032348776512181e-04  1.6028674512956763e-04  1.6012831866193332e-04  1.5916621054223122e-04  1.5383577581845658e-04  1.2817993182644640e-04  2.7426101741925324e-05  -2.5114260506827298e-04  -5.3319055663566530e-04  5.2496076990719105e-04  -4.2898234913426508e-05  -6.5500989101338790e-05  1.0291932681930160e-04  -2.4679744316361175e-04  1.6851519493608997e-04  -9.0883651698902522e-06  3.9356848527604992e-06  1.0947454360754396e-05  1.1178901130804721e-05  1.0923990324691227e-05  1.0853956346269994e-05  1.0844941717707769e-05  1.0839363317239584e-05  1.0802896305583241e-05  1.0601873769833560e-05  9.6310203727618473e-06  5.6330340331457602e-06  -7.3554000544843355e-06  -3.4489551937420004e-05  -3.9886584885008776e-05  8.2064741922649556e-05  -2.7203658593345401e-05  -8.0168068481923937e-06  5.0383212541784308e-06  -2.9572763596362794e-05  2.8885259333802309e-05  -7.5754847402226052e-06  2.5806390771933644e-07  1.0991319982071417e-06  8.0251965078568888e-07  7.2888674611477679e-07  7.2830230179295472e-07  7.3124382756993421e-07  7.3068725693960220e-07  7.2308457798415887e-07  6.8575008606888321e-07  5.2733488775438834e-07  -3.4413040099638337e-08  -1.5383146599269154e-06  -3.7504376970607936e-06  -1.7284403066978083e-06  1.0519267748099623e-05  -6.5295386203663907e-06  8.6092966238314690e-07  -1.1451419412821851e-07  -3.1054188142821863e-06  4.3496450363135175e-06  -2.0029756343687745e-06  2.6268602868798279e-07  1.4017956015054872e-07  4.5288322298825566e-08  4.4453935971048971e-08  4.8643310967302904e-08  4.9421954843303583e-08  4.9120444965717465e-08  4.7628912026147028e-08  4.1325796806579762e-08  1.7733471713383306e-08  -5.4287544130364091e-08  -2.0999830747967727e-07  -3.3814912190962072e-07  1.1037790340180052e-07  1.1548951682084004e-06  -1.1416298376051575e-06  6.0159492325915957e-07  -7.4189545064716515e-08  -2.8213050526479772e-07  5.8726432204327792e-07  -3.9760356407582144e-07  1.0250955149554251e-07  1.1356563418806858e-08  -1.5894871007585916e-09  2.5031100490478668e-09  3.4519299475697443e-09  3.3861521368437166e-09  3.2737569859161180e-09  3.0129191067191518e-09  2.0358786558724850e-09  -1.2035385505798258e-09  -9.6523614970402340e-09  -2.3684867186075027e-08  -2.3652761506313931e-08  4.0640332872920496e-08  1.0840267437705327e-07  -1.6416244287414912e-07  1.6224664420091943e-07  -1.2991583547637326e-08  -2.1102577261108300e-08  7.3090688109368718e-08  -6.8394568807818041e-08  2.7288670648378880e-08  -1.9104334937885001e-09  -1.0271896872390811e-09  2.9656626646547629e-10  2.9648888592361227e-10  2.3083497086074918e-10  2.1141459964052327e-10  1.7296795891942174e-10  3.3241753115737641e-11  -3.8029589507013037e-10  -1.2907425781981204e-09  -2.3227895678009630e-09  -8.3272541672502191e-10  6.7272834353162238e-09  8.3558960392856582e-09  -2.0532837161403085e-08  3.2774820993853247e-08  -3.7089346550607532e-09  -1.8401045060399780e-09  1.6128613598470613e-08  -2.0463051538757724e-08  1.1365122190916672e-08  -2.3370469329729079e-09  -2.4199094608386575e-10  1.6160991384658743e-10  5.1594197480497617e-11  2.5228879005441691e-11  2.4443491990408412e-11  1.3985499784794092e-11  -2.4101536338329331e-11  -1.2196377185680022e-10  -2.9432667569337824e-10  -3.7233543479137498e-10  2.2288120328336898e-10  1.6873900223426675e-09  7.9411424624464207e-10  -4.3259881795568711e-09  9.8454140927168859e-09  4.6983856162426974e-10  -6.7027174106980085e-10  -4.0968586590560700e-10  -1.0873311618940639e-10  3.2795298718329785e-12  2.6520165083297599e-11  2.7754812529334106e-11  2.7970503438088612e-11  3.3439745846643492e-11  2.5056547493782942e-11  -1.0392679584020579e-10  -6.2480693537190910e-11  2.2209898742133890e-09  -5.5239221077316493e-09  5.1925540259380198e-09  -3.5374069510993903e-10  -1.5469658827733113e-09  -2.7092269502737176e-10  4.4887534959059416e-10  1.5078637582917907e-10  3.2212092142887782e-10  -1.0417293814964076e-09  -3.9673238136829196e-09  -1.6053152656085438e-09  -2.0906075263159137e-10  1.6718204427320618e-10  2.1267551359868742e-10  2.0427980921123893e-10  2.0004025987216374e-10  1.9655104049691277e-10  1.3292757467455892e-10  -3.7883505532523243e-11  8.1559609151740856e-10  4.2429142694187369e-09  -1.7204007992261536e-08  2.3472534808781199e-08  -6.8588008587819208e-09  -6.4910085542137055e-09  6.5944937938845758e-10  2.6112926880171850e-09  9.1633486115181645e-10  1.1762652005826793e-09  -4.1754718278294166e-08  -3.8022751443270631e-08  -9.9524530458293256e-09  1.0072962154642163e-09  3.0620606862721439e-09  3.0716242815153744e-09  2.9286852915673030e-09  2.8601927581985025e-09  2.7790887181692994e-09  2.5626695686890847e-09  2.9114864309688844e-09  7.9060281224599658e-09  8.9737143976874129e-09  -8.5280602918040838e-08  1.8072322136879235e-07  -9.7455917845230341e-08  -3.9932624359341760e-08  2.3153747668418314e-08  2.6568900434233891e-08  9.2713254627062332e-09  8.7865397674962258e-09  -6.2986460523884246e-07  -3.1189480516505812e-07  -3.4133959243955670e-08  3.9674827914927532e-08  4.6618992715692640e-08  4.4164224792145784e-08  4.2658236914822635e-08  4.2104800876452944e-08  4.1815341941367517e-08  4.2138380505828302e-08  4.7001077838398148e-08  5.9232880076291490e-08  -1.0823978768193439e-09  -3.0390625325036906e-07  1.2532255222791833e-06  -1.0699175167013347e-06  -1.0667390650603344e-07  3.5179529009816506e-07  2.5147666779831405e-07  8.2289111843071131e-08  6.1835597077200243e-08  -7.1972105252025928e-06  -2.0259008763834244e-06  3.0888878506538845e-07  6.9368088166230514e-07  6.7239468946613474e-07  6.3913112628302218e-07  6.2681630971217085e-07  6.2359995358919420e-07  6.2373041020267396e-07  6.2858624398192260e-07  6.4079487955673911e-07  6.0343256171183153e-07  2.1602220746819652e-07  -2.9041013739588081e-08  7.5717912937068792e-06  -9.7753819925663224e-06  1.8884192895108542e-06  4.1724306179202975e-06  2.1959761186198856e-06  6.5564300239882625e-07  4.0351803190893232e-07  -6.8086266339827917e-05  -6.8872764668704687e-06  9.3817253455617381e-06  1.0318234878968853e-05  9.6428096119640807e-06  9.3333744287817795e-06  9.2480609015810248e-06  9.2304140554133195e-06  9.2301952273011150e-06  9.2306534676026913e-06  9.1702445116096173e-06  8.7828212800878772e-06  7.9883156867207138e-06  1.2649483487391362e-05  3.9344531568497256e-05  -7.4037911259509727e-05  4.4594753398228353e-05  4.2877768851384823e-05  1.7669456994619352e-05  4.7145634998087449e-06  2.4135816882901364e-06  -5.1913005924735705e-04  7.5114975297445140e-05  1.5738283935526850e-04  1.4718505834234981e-04  1.3939056297767531e-04  1.3707294635902648e-04  1.3656222562576187e-04  1.3646398259375384e-04  1.3642752976090469e-04  1.3633103393283655e-04  1.3602790349413589e-04  1.3578279878886105e-04  1.4044395668706274e-04  1.7105118817469490e-04  1.9694426984445017e-04  -4.1583015663175933e-04  6.3465770195550160e-04  3.9416954939307269e-04  1.2995928713226880e-04  3.0359820587786715e-05  1.2979397109593502e-05  -2.4729643279898139e-03  2.2003863361783707e-03  2.2857406393860264e-03  2.0920668573786456e-03  2.0269714586331694e-03  2.0126833490317713e-03  2.0101425727477654e-03  2.0097551508422270e-03  2.0097407127198136e-03  2.0099997882021370e-03  2.0115561221245334e-03  2.0191568609198430e-03  2.0458519204009772e-03  2.0717451324258553e-03  1.6486329014182496e-03  -6.5440009624139698e-04  7.3698444498746163e-03  3.2566806425469884e-03  8.5789805853539588e-04  1.7119370418377719e-04  6.0695887422577691e-05  1.1644711381333819e-02  3.6085736129943459e-02  3.1643474638573081e-02  2.9695932294356030e-02  2.9274885519499177e-02  2.9204798586184622e-02  2.9194854794813745e-02  2.9193605093742411e-02  2.9193435720811456e-02  2.9193143821793301e-02  2.9190819533593773e-02  2.9173472362783455e-02  2.9060090288910712e-02  2.8447316469787168e-02  2.6144282370236912e-02  2.5013227806695740e-02  7.4343509427552162e-02  2.3745944891305264e-02  4.8918909714921388e-03  8.0537309017072057e-04  2.3157425004231611e-04  5.2895160638618333e-01  4.8573487865103188e-01  4.2015526643623058e-01  4.0667598769975472e-01  4.0469660033828758e-01  4.0445384906385717e-01  4.0442803984469117e-01  4.0442568453267103e-01  4.0442551371579377e-01  4.0442556443661026e-01  4.0442652844094967e-01  4.0443819288401844e-01  4.0455682586640834e-01  4.0560730909618065e-01  4.1363153271936010e-01  4.6296179437689083e-01  6.4300575264514404e-01  1.4360741971275162e-01  2.2037648541632395e-02  2.8197711148313736e-03  6.1923951097969773e-04  7.9797579783750479e+00  5.1339487078182975e+00  4.6522912838669557e+00  4.5985523888104414e+00  4.5936409235058946e+00  4.5932783651035356e+00  4.5932615272536497e+00  4.5932622100331590e+00  4.5932625322738039e+00  4.5932626488708479e+00  4.5932631144913607e+00  4.5932653984616518e+00  4.5932636732566854e+00  4.5930231565317117e+00  4.5889099803470552e+00  4.5383127125749532e+00  4.0389152689094736e+00  5.7704798622445197e-01  5.8622976860589857e-02  4.8733566006732591e-03  5.7426623514610119e-04  1.3239926349122277e+00  3.4488380114173539e-01  4.0970383123885962e-01  4.4460695657089777e-01  4.5125897785304753e-01  4.5221368962280351e-01  4.5233009835848437e-01  4.5234252990411261e-01  4.5234368351435456e-01  4.5234377253856040e-01  4.5234367050429120e-01  4.5234167561072663e-01  4.5231643068055372e-01  4.5205223977404158e-01  4.4965395203242847e-01  4.3080155797173625e-01  3.0923141012819771e-01  -2.0920949732465657e-01  -5.5673564413449519e-02  -9.2374319156853131e-03  -2.4117492336819418e-03  1.5663002646718957e-01  -2.2248722949905514e-02  2.9985845811134854e-02  3.5085531226682926e-02  3.4190167848616948e-02  3.3796429479769872e-02  3.3710788296108851e-02  3.3696392440687069e-02  3.3694321894818968e-02  3.3694044965769061e-02  3.3693868827006049e-02  3.3692435548001935e-02  3.3679932700272648e-02  3.3581840407074043e-02  3.2898538403878311e-02  2.8813053085725151e-02  9.5685426631183530e-03  -4.4251615936341401e-02  2.3287328503797844e-03  2.7250229787734591e-03  1.4068717145073132e-03  1.5827724226648441e-02  -9.7164550049226861e-03  4.0491407393493791e-03  2.8937468421895464e-03  2.3701430030822570e-03  2.3251398965087001e-03  2.3344179722478947e-03  2.3388954948853663e-03  2.3399867252790218e-03  2.3401846804607224e-03  2.3401486814810368e-03  2.3396083755971311e-03  2.3356941736887753e-03  2.3103268983936821e-03  2.1655528413232531e-03  1.4725038675813247e-03  -1.0137833488684299e-03  -5.5163873669820422e-03  2.3701254491355038e-03  4.0771332597566587e-04  -8.1047357269257552e-05  1.3956750180713800e-03  -1.7632882317044382e-03  8.5130793241006424e-04  1.9197940224759927e-04  1.3335765802271221e-04  1.5311826251170112e-04  1.5890921989598065e-04  1.5946956900687038e-04  1.5938394943913734e-04  1.5932998383103456e-04  1.5929316860599567e-04  1.5913462772895455e-04  1.5817215894017644e-04  1.5284163920600878e-04  1.2719656176630163e-04  2.6544224751344697e-05  -2.5147216908649262e-04  -5.3191074651947918e-04  5.2612890616923747e-04  -4.3695076159165699e-05  -6.5616484240336011e-05  1.0227074906761559e-04  -2.4684580310120038e-04  1.6887153845488332e-04  -9.3701384174689388e-06  3.8670642278162354e-06  1.0888385141411605e-05  1.1112501704223867e-05  1.0855951552574676e-05  1.0785830087732106e-05  1.0776857386570895e-05  1.0771292220992632e-05  1.0734817433218707e-05  1.0533793271322364e-05  9.5632767738644758e-06  5.5684950301671849e-06  -7.4010266938402077e-06  -3.4460982415637297e-05  -3.9711461950622835e-05  8.2118005910678457e-05  -2.7348672872095383e-05  -7.9825802869693050e-06  4.9820906813638562e-06  -2.9552119683593369e-05  2.8924035153716580e-05  -7.6224021656830306e-06  2.6129149985900143e-07  1.0963755177546655e-06  7.9775876804433820e-07  7.2416127590721200e-07  7.2366777863808576e-07  7.2662880156989164e-07  7.2607326212553845e-07  7.1847009510203732e-07  6.8114640988421148e-07  5.2283646181171762e-07  -3.8262488165937115e-08  -1.5392682288518801e-06  -3.7427636430671972e-06  -1.7101360003643382e-06  1.0514789073847461e-05  -6.5477102764848531e-06  8.7497589829450204e-07  -1.1848309742772476e-07  -3.1007571436108811e-06  4.3524880027354801e-06  -2.0098248691789062e-06  2.6496557647286945e-07  1.3988999000440048e-07  4.4853661008122676e-08  4.4125320636446199e-08  4.8334048991548590e-08  4.9111547272521205e-08  4.8808909752829521e-08  4.7317499022379990e-08  4.1017937880984033e-08  1.7448290609698132e-08  -5.4463848616280845e-08  -2.0978617170485855e-07  -3.3705562975513755e-07  1.1192050530856381e-07  1.1533183163672656e-06  -1.1432936261500278e-06  6.0465329719796113e-07  -7.4357303531608713e-08  -2.8143971818474894e-07  5.8729274260483352e-07