<?xml version="1.0"?>
<VTKFile type="UnstructuredGrid"  version="0.1"  >
<UnstructuredGrid>
<Piece  NumberOfPoints="9261" NumberOfCells="48000">
<Points>
<DataArray  type="Float64"  NumberOfComponents="3"  format="ascii">0 0 0  0.015 0 0  0.03 0 0  0.045 0 0  0.06 0 0  0.075 0 0  0.09 0 0  0.105 0 0  0.12 0 0  0.135 0 0  0.15 0 0  0.165 0 0  0.18 0 0  0.195 0 0  0.21 0 0  0.225 0 0  0.24 0 0  0.255 0 0  0.27 0 0  0.285 0 0  0.3 0 0  0 0.015 0  0.015 0.015 0  0.03 0.015 0  0.045 0.015 0  0.06 0.015 0  0.075 0.015 0  0.09 0.015 0  0.105 0.015 0  0.12 0.015 0  0.135 0.015 0  0.15 0.015 0  0.165 0.015 0  0.18 0.015 0  0.195 0.015 0  0.21 0.015 0  0.225 0.015 0  0.24 0.015 0  0.255 0.015 0  0.27 0.015 0  0.285 0.015 0  0.3 0.015 0  0 0.03 0  0.015 0.03 0  0.03 0.03 0  0.045 0.03 0  0.06 0.03 0  0.075 0.03 0  0.09 0.03 0  0.105 0.03 0  0.12 0.03 0  0.135 0.03 0  0.15 0.03 0  0.165 0.03 0  0.18 0.03 0  0.195 0.03 0  0.21 0.03 0  0.225 0.03 0  0.24 0.03 0  0.255 0.03 0  0.27 0.03 0  0.285 0.03 0  0.3 0.03 0  0 0.045 0  0.015 0.045 0  0.03 0.045 0  0.045 0.045 0  0.06 0.045 0  0.075 0.045 0  0.09 0.045 0  0.105 0.045 0  0.12 0.045 0  0.135 0.045 0  0.15 0.045 0  0.165 0.045 0  0.18 0.045 0  0.195 0.045 0  0.21 0.045 0  0.225 0.045 0  0.24 0.045 0  0.255 0.045 0  0.27 0.045 0  0.285 0.045 0  0.3 0.045 0  0 0.06 0  0.015 0.06 0  0.03 0.06 0  0.045 0.06 0  0.06 0.06 0  0.075 0.06 0  0.09 0.06 0  0.105 0.06 0  0.12 0.06 0  0.135 0.06 0  0.15 0.06 0  0.165 0.06 0  0.18 0.06 0  0.195 0.06 0  0.21 0.06 0  0.225 0.06 0  0.24 0.06 0  0.255 0.06 0  0.27 0.06 0  0.285 0.06 0  0.3 0.06 0  0 0.075 0  0.015 0.075 0  0.03 0.075 0  0.045 0.075 0  0.06 0.075 0  0.075 0.075 0  0.09 0.075 0  0.105 0.075 0  0.12 0.075 0  0.135 0.075 0  0.15 0.075 0  0.165 0.075 0  0.18 0.075 0  0.195 0.075 0  0.21 0.075 0  0.225 0.075 0  0.24 0.075 0  0.255 0.075 0  0.27 0.075 0  0.285 0.075 0  0.3 0.075 0  0 0.09 0  0.015 0.09 0  0.03 0.09 0  0.045 0.09 0  0.06 0.09 0  0.075 0.09 0  0.09 0.09 0  0.105 0.09 0  0.12 0.09 0  0.135 0.09 0  0.15 0.09 0  0.165 0.09 0  0.18 0.09 0  0.195 0.09 0  0.21 0.09 0  0.225 0.09 0  0.24 0.09 0  0.255 0.09 0  0.27 0.09 0  0.285 0.09 0  0.3 0.09 0  0 0.105 0  0.015 0.105 0  0.03 0.105 0  0.045 0.105 0  0.06 0.105 0  0.075 0.105 0  0.09 0.105 0  0.105 0.105 0  0.12 0.105 0  0.135 0.105 0  0.15 0.105 0  0.165 0.105 0  0.18 0.105 0  0.195 0.105 0  0.21 0.105 0  0.225 0.105 0  0.24 0.105 0  0.255 0.105 0  0.27 0.105 0  0.285 0.105 0  0.3 0.105 0  0 0.12 0  0.015 0.12 0  0.03 0.12 0  0.045 0.12 0  0.06 0.12 0  0.075 0.12 0  0.09 0.12 0  0.105 0.12 0  0.12 0.12 0  0.135 0.12 0  0.15 0.12 0  0.165 0.12 0  0.18 0.12 0  0.195 0.12 0  0.21 0.12 0  0.225 0.12 0  0.24 0.12 0  0.255 0.12 0  0.27 0.12 0  0.285 0.12 0  0.3 0.12 0  0 0.135 0  0.015 0.135 0  0.03 0.135 0  0.045 0.135 0  0.06 0.135 0  0.075 0.135 0  0.09 0.135 0  0.105 0.135 0  0.12 0.135 0  0.135 0.135 0  0.15 0.135 0  0.165 0.135 0  0.18 0.135 0  0.195 0.135 0  0.21 0.135 0  0.225 0.135 0  0.24 0.135 0  0.255 0.135 0  0.27 0.135 0  0.285 0.135 0  0.3 0.135 0  0 0.15 0  0.015 0.15 0  0.03 0.15 0  0.045 0.15 0  0.06 0.15 0  0.075 0.15 0  0.09 0.15 0  0.105 0.15 0  0.12 0.15 0  0.135 0.15 0  0.15 0.15 0  0.165 0.15 0  0.18 0.15 0  0.195 0.15 0  0.21 0.15 0  0.225 0.15 0  0.24 0.15 0  0.255 0.15 0  0.27 0.15 0  0.285 0.15 0  0.3 0.15 0  0 0.165 0  0.015 0.165 0  0.03 0.165 0  0.045 0.165 0  0.06 0.165 0  0.075 0.165 0  0.09 0.165 0  0.105 0.165 0  0.12 0.165 0  0.135 0.165 0  0.15 0.165 0  0.165 0.165 0  0.18 0.165 0  0.195 0.165 0  0.21 0.165 0  0.225 0.165 0  0.24 0.165 0  0.255 0.165 0  0.27 0.165 0  0.285 0.165 0  0.3 0.165 0  0 0.18 0  0.015 0.18 0  0.03 0.18 0  0.045 0.18 0  0.06 0.18 0  0.075 0.18 0  0.09 0.18 0  0.105 0.18 0  0.12 0.18 0  0.135 0.18 0  0.15 0.18 0  0.165 0.18 0  0.18 0.18 0  0.195 0.18 0  0.21 0.18 0  0.225 0.18 0  0.24 0.18 0  0.255 0.18 0  0.27 0.18 0  0.285 0.18 0  0.3 0.18 0  0 0.195 0  0.015 0.195 0  0.03 0.195 0  0.045 0.195 0  0.06 0.195 0  0.075 0.195 0  0.09 0.195 0  0.105 0.195 0  0.12 0.195 0  0.135 0.195 0  0.15 0.195 0  0.165 0.195 0  0.18 0.195 0  0.195 0.195 0  0.21 0.195 0  0.225 0.195 0  0.24 0.195 0  0.255 0.195 0  0.27 0.195 0  0.285 0.195 0  0.3 0.195 0  0 0.21 0  0.015 0.21 0  0.03 0.21 0  0.045 0.21 0  0.06 0.21 0  0.075 0.21 0  0.09 0.21 0  0.105 0.21 0  0.12 0.21 0  0.135 0.21 0  0.15 0.21 0  0.165 0.21 0  0.18 0.21 0  0.195 0.21 0  0.21 0.21 0  0.225 0.21 0  0.24 0.21 0  0.255 0.21 0  0.27 0.21 0  0.285 0.21 0  0.3 0.21 0  0 0.225 0  0.015 0.225 0  0.03 0.225 0  0.045 0.225 0  0.06 0.225 0  0.075 0.225 0  0.09 0.225 0  0.105 0.225 0  0.12 0.225 0  0.135 0.225 0  0.15 0.225 0  0.165 0.225 0  0.18 0.225 0  0.195 0.225 0  0.21 0.225 0  0.225 0.225 0  0.24 0.225 0  0.255 0.225 0  0.27 0.225 0  0.285 0.225 0  0.3 0.225 0  0 0.24 0  0.015 0.24 0  0.03 0.24 0  0.045 0.24 0  0.06 0.24 0  0.075 0.24 0  0.09 0.24 0  0.105 0.24 0  0.12 0.24 0  0.135 0.24 0  0.15 0.24 0  0.165 0.24 0  0.18 0.24 0  0.195 0.24 0  0.21 0.24 0  0.225 0.24 0  0.24 0.24 0  0.255 0.24 0  0.27 0.24 0  0.285 0.24 0  0.3 0.24 0  0 0.255 0  0.015 0.255 0  0.03 0.255 0  0.045 0.255 0  0.06 0.255 0  0.075 0.255 0  0.09 0.255 0  0.105 0.255 0  0.12 0.255 0  0.135 0.255 0  0.15 0.255 0  0.165 0.255 0  0.18 0.255 0  0.195 0.255 0  0.21 0.255 0  0.225 0.255 0  0.24 0.255 0  0.255 0.255 0  0.27 0.255 0  0.285 0.255 0  0.3 0.255 0  0 0.27 0  0.015 0.27 0  0.03 0.27 0  0.045 0.27 0  0.06 0.27 0  0.075 0.27 0  0.09 0.27 0  0.105 0.27 0  0.12 0.27 0  0.135 0.27 0  0.15 0.27 0  0.165 0.27 0  0.18 0.27 0  0.195 0.27 0  0.21 0.27 0  0.225 0.27 0  0.24 0.27 0  0.255 0.27 0  0.27 0.27 0  0.285 0.27 0  0.3 0.27 0  0 0.285 0  0.015 0.285 0  0.03 0.285 0  0.045 0.285 0  0.06 0.285 0  0.075 0.285 0  0.09 0.285 0  0.105 0.285 0  0.12 0.285 0  0.135 0.285 0  0.15 0.285 0  0.165 0.285 0  0.18 0.285 0  0.195 0.285 0  0.21 0.285 0  0.225 0.285 0  0.24 0.285 0  0.255 0.285 0  0.27 0.285 0  0.285 0.285 0  0.3 0.285 0  0 0.3 0  0.015 0.3 0  0.03 0.3 0  0.045 0.3 0  0.06 0.3 0  0.075 0.3 0  0.09 0.3 0  0.105 0.3 0  0.12 0.3 0  0.135 0.3 0  0.15 0.3 0  0.165 0.3 0  0.18 0.3 0  0.195 0.3 0  0.21 0.3 0  0.225 0.3 0  0.24 0.3 0  0.255 0.3 0  0.27 0.3 0  0.285 0.3 0  0.3 0.3 0  0 0 0.00075  0.015 0 0.00075  0.03 0 0.00075  0.045 0 0.00075  0.06 0 0.00075  0.075 0 0.00075  0.09 0 0.00075  0.105 0 0.00075  0.12 0 0.00075  0.135 0 0.00075  0.15 0 0.00075  0.165 0 0.00075  0.18 0 0.00075  0.195 0 0.00075  0.21 0 0.00075  0.225 0 0.00075  0.24 0 0.00075  0.255 0 0.00075  0.27 0 0.00075  0.285 0 0.00075  0.3 0 0.00075  0 0.015 0.00075  0.015 0.015 0.00075  0.03 0.015 0.00075  0.045 0.015 0.00075  0.06 0.015 0.00075  0.075 0.015 0.00075  0.09 0.015 0.00075  0.105 0.015 0.00075  0.12 0.015 0.00075  0.135 0.015 0.00075  0.15 0.015 0.00075  0.165 0.015 0.00075  0.18 0.015 0.00075  0.195 0.015 0.00075  0.21 0.015 0.00075  0.225 0.015 0.00075  0.24 0.015 0.00075  0.255 0.015 0.00075  0.27 0.015 0.00075  0.285 0.015 0.00075  0.3 0.015 0.00075  0 0.03 0.00075  0.015 0.03 0.00075  0.03 0.03 0.00075  0.045 0.03 0.00075  0.06 0.03 0.00075  0.075 0.03 0.00075  0.09 0.03 0.00075  0.105 0.03 0.00075  0.12 0.03 0.00075  0.135 0.03 0.00075  0.15 0.03 0.00075  0.165 0.03 0.00075  0.18 0.03 0.00075  0.195 0.03 0.00075  0.21 0.03 0.00075  0.225 0.03 0.00075  0.24 0.03 0.00075  0.255 0.03 0.00075  0.27 0.03 0.00075  0.285 0.03 0.00075  0.3 0.03 0.00075  0 0.045 0.00075  0.015 0.045 0.00075  0.03 0.045 0.00075  0.045 0.045 0.00075  0.06 0.045 0.00075  0.075 0.045 0.00075  0.09 0.045 0.00075  0.105 0.045 0.00075  0.12 0.045 0.00075  0.135 0.045 0.00075  0.15 0.045 0.00075  0.165 0.045 0.00075  0.18 0.045 0.00075  0.195 0.045 0.00075  0.21 0.045 0.00075  0.225 0.045 0.00075  0.24 0.045 0.00075  0.255 0.045 0.00075  0.27 0.045 0.00075  0.285 0.045 0.00075  0.3 0.045 0.00075  0 0.06 0.00075  0.015 0.06 0.00075  0.03 0.06 0.00075  0.045 0.06 0.00075  0.06 0.06 0.00075  0.075 0.06 0.00075  0.09 0.06 0.00075  0.105 0.06 0.00075  0.12 0.06 0.00075  0.135 0.06 0.00075  0.15 0.06 0.00075  0.165 0.06 0.00075  0.18 0.06 0.00075  0.195 0.06 0.00075  0.21 0.06 0.00075  0.225 0.06 0.00075  0.24 0.06 0.00075  0.255 0.06 0.00075  0.27 0.06 0.00075  0.285 0.06 0.00075  0.3 0.06 0.00075  0 0.075 0.00075  0.015 0.075 0.00075  0.03 0.075 0.00075  0.045 0.075 0.00075  0.06 0.075 0.00075  0.075 0.075 0.00075  0.09 0.075 0.00075  0.105 0.075 0.00075  0.12 0.075 0.00075  0.135 0.075 0.00075  0.15 0.075 0.00075  0.165 0.075 0.00075  0.18 0.075 0.00075  0.195 0.075 0.00075  0.21 0.075 0.00075  0.225 0.075 0.00075  0.24 0.075 0.00075  0.255 0.075 0.00075  0.27 0.075 0.00075  0.285 0.075 0.00075  0.3 0.075 0.00075  0 0.09 0.00075  0.015 0.09 0.00075  0.03 0.09 0.00075  0.045 0.09 0.00075  0.06 0.09 0.00075  0.075 0.09 0.00075  0.09 0.09 0.00075  0.105 0.09 0.00075  0.12 0.09 0.00075  0.135 0.09 0.00075  0.15 0.09 0.00075  0.165 0.09 0.00075  0.18 0.09 0.00075  0.195 0.09 0.00075  0.21 0.09 0.00075  0.225 0.09 0.00075  0.24 0.09 0.00075  0.255 0.09 0.00075  0.27 0.09 0.00075  0.285 0.09 0.00075  0.3 0.09 0.00075  0 0.105 0.00075  0.015 0.105 0.00075  0.03 0.105 0.00075  0.045 0.105 0.00075  0.06 0.105 0.00075  0.075 0.105 0.00075  0.09 0.105 0.00075  0.105 0.105 0.00075  0.12 0.105 0.00075  0.135 0.105 0.00075  0.15 0.105 0.00075  0.165 0.105 0.00075  0.18 0.105 0.00075  0.195 0.105 0.00075  0.21 0.105 0.00075  0.225 0.105 0.00075  0.24 0.105 0.00075  0.255 0.105 0.00075  0.27 0.105 0.00075  0.285 0.105 0.00075  0.3 0.105 0.00075  0 0.12 0.00075  0.015 0.12 0.00075  0.03 0.12 0.00075  0.045 0.12 0.00075  0.06 0.12 0.00075  0.075 0.12 0.00075  0.09 0.12 0.00075  0.105 0.12 0.00075  0.12 0.12 0.00075  0.135 0.12 0.00075  0.15 0.12 0.00075  0.165 0.12 0.00075  0.18 0.12 0.00075  0.195 0.12 0.00075  0.21 0.12 0.00075  0.225 0.12 0.00075  0.24 0.12 0.00075  0.255 0.12 0.00075  0.27 0.12 0.00075  0.285 0.12 0.00075  0.3 0.12 0.00075  0 0.135 0.00075  0.015 0.135 0.00075  0.03 0.135 0.00075  0.045 0.135 0.00075  0.06 0.135 0.00075  0.075 0.135 0.00075  0.09 0.1
[...]
<PointData  Vectors="f_205"> 
<DataArray  type="Float64"  Name="f_205"  NumberOfComponents="3" format="ascii">-2.4121647541428896e+01 -4.9514204210238589e+01 -1.9546435430735734e+00  -1.9795079744540963e+01 -4.7904176264494396e+01 -1.9750943762402118e+00  -1.5540370758156497e+01 -4.6199379396387144e+01 -1.9581415929437229e+00  -1.1430559521096239e+01 -4.4405676393026312e+01 -1.9249839502160480e+00  -7.4955452033030436e+00 -4.2551241428495359e+01 -1.8863352653777363e+00  -3.7403237546233665e+00 -4.0656905274040270e+01 -1.8461188813296296e+00  -1.5824109353072047e-01 -3.8732297402435080e+01 -1.8062642535230056e+00  3.2640336784265243e+00 -3.6775891088295083e+01 -1.7682861419963569e+00  6.5435155370524152e+00 -3.4770835373051185e+01 -1.7314704355416419e+00  9.6896338394127426e+00 -3.2678932327380593e+01 -1.6880417089465549e+00  1.2678446786850786e+01 -3.0448817582718746e+01 -1.6223710545348649e+00  1.5440602873283575e+01 -2.8053729346098581e+01 -1.5253755517510976e+00  1.7903467959083276e+01 -2.5523178880001673e+01 -1.4073364021890085e+00  2.0035603954749174e+01 -2.2916313976575491e+01 -1.2825152468843246e+00  2.1841132733308100e+01 -2.0282122995285846e+01 -1.1567181122981907e+00  2.3335556967669081e+01 -1.7650514525527630e+01 -1.0296792611258319e+00  2.4532938766893210e+01 -1.5041744722996773e+01 -8.9971141401654997e-01  2.5444345810656689e+01 -1.2477620226726806e+01 -7.6671964235538170e-01  2.6086084834882911e+01 -9.9911389672857478e+00 -6.3777480676487652e-01  2.6509067103505046e+01 -7.6244873257883201e+00 -5.3585821542189271e-01  2.6844658939246063e+01 -5.3851685602101842e+00 -4.9412145904318472e-01  -2.5736517447502301e+01 -4.5210084849712089e+01 -1.9253684985051007e+00  -2.1436429908667183e+01 -4.3676995701495152e+01 -1.9544977797585221e+00  -1.7226222578896977e+01 -4.2108745335128354e+01 -1.9404070339738777e+00  -1.3165714938546612e+01 -4.0478936426207682e+01 -1.9053870926100063e+00  -9.2759185515771847e+00 -3.8795805497970825e+01 -1.8635277974875937e+00  -5.5613716202521983e+00 -3.7070842691659649e+01 -1.8200077845791989e+00  -2.0202730472858028e+00 -3.5309273285359495e+01 -1.7767030684571348e+00  1.3527354553575808e+00 -3.3507809016580381e+01 -1.7346453598300966e+00  4.5647339640091920e+00 -3.1653173349461809e+01 -1.6930616689302362e+00  7.6179405554521322e+00 -2.9722231270128969e+01 -1.6457160399669046e+00  1.0494635233411680e+01 -2.7689130255583155e+01 -1.5792345661688723e+00  1.3147950998695142e+01 -2.5541425766467622e+01 -1.4831895427555701e+00  1.5526206756679144e+01 -2.3292839474005177e+01 -1.3640536832866683e+00  1.7605758687710225e+01 -2.0976321585405234e+01 -1.2359151742038104e+00  1.9388378064290617e+01 -1.8626477243466869e+01 -1.1062069829217951e+00  2.0883779096941527e+01 -1.6270303505984458e+01 -9.7547409728406098e-01  2.2101352489155669e+01 -1.3928640319234841e+01 -8.4220914428744620e-01  2.3049413651023986e+01 -1.1621297979890141e+01 -7.0645253090206561e-01  2.3740092027510840e+01 -9.3700015331958593e+00 -5.7514542845329775e-01  2.4210084698143064e+01 -7.1897537752358156e+00 -4.7034250423393276e-01  2.4564986585743036e+01 -5.0496455619001894e+00 -4.2041382169856417e-01  -2.7272732181149834e+01 -4.0879123885678382e+01 -1.8963266351363695e+00  -2.2986831685669486e+01 -3.9452239184534712e+01 -1.9290009581388408e+00  -1.8790056373145706e+01 -3.8018995202436123e+01 -1.9170407014108577e+00  -1.4752542426523165e+01 -3.6549947674262476e+01 -1.8802193514615131e+00  -1.0892488712209245e+01 -3.5038306152028554e+01 -1.8348806976761800e+00  -7.2116597146579489e+00 -3.3485707911624019e+01 -1.7871516023483205e+00  -3.7085700770177108e+00 -3.1892746026714732e+01 -1.7387113644167085e+00  -3.8080767494674306e-01 -3.0255349535873805e+01 -1.6898604079382116e+00  2.7741233899971420e+00 -2.8564217688586691e+01 -1.6393818448823225e+00  5.7548205662160123e+00 -2.6807201561472521e+01 -1.5825289310886781e+00  8.5470518412857448e+00 -2.4974824387884411e+01 -1.5101444758552758e+00  1.1117891236768266e+01 -2.3065320696944287e+01 -1.4145547720171783e+00  1.3429914162399642e+01 -2.1085665371472327e+01 -1.2989223592364181e+00  1.5464319151624252e+01 -1.9051259335778141e+01 -1.1731455790754510e+00  1.7221290192819623e+01 -1.6982679042992785e+01 -1.0437042534372041e+00  1.8706841358247939e+01 -1.4900864727894353e+01 -9.1181886466494133e-01  1.9926053041649059e+01 -1.2824571756435864e+01 -7.7675021349411866e-01  2.0882581266929055e+01 -1.0770260614390573e+01 -6.3926716125858629e-01  2.1583500362997786e+01 -8.7507550688528948e+00 -5.0726411950096673e-01  2.2061162015671432e+01 -6.7662562101899946e+00 -4.0395053936085168e-01  2.2422998167456800e+01 -4.7805633716686549e+00 -3.5685459267453934e-01  -2.8678352714635597e+01 -3.6518577541165016e+01 -1.8706510047965794e+00  -2.4402806679023630e+01 -3.5226380176803417e+01 -1.9046743905050088e+00  -2.0212291149421773e+01 -3.3938766816360392e+01 -1.8932433082945046e+00  -1.6185496071584360e+01 -3.2630722420313823e+01 -1.8550110185281834e+00  -1.2343600796573700e+01 -3.1290416235746086e+01 -1.8065628549330817e+00  -8.6876334814605851e+00 -2.9913221275985507e+01 -1.7544593279561926e+00  -5.2155908396263646e+00 -2.8496259569528675e+01 -1.7002886576171470e+00  -1.9260009341196418e+00 -2.7035348737214495e+01 -1.6439130550912382e+00  1.1813371908933232e+00 -2.5524633142937049e+01 -1.5839554984794808e+00  4.1029638583562438e+00 -2.3958706088553974e+01 -1.5170577907677305e+00  6.8269857686954509e+00 -2.2335808754015964e+01 -1.4378093455804408e+00  9.3304479193182708e+00 -2.0658403753896597e+01 -1.3418471579799824e+00  1.1587395022207369e+01 -1.8930882845939493e+01 -1.2305110639010306e+00  1.3582746683011102e+01 -1.7160718509078070e+01 -1.1092125314096519e+00  1.5314109361274900e+01 -1.5359913948584222e+01 -9.8217352508823030e-01  1.6783850460737241e+01 -1.3543194978084346e+01 -8.5079504263505112e-01  1.7993786547637459e+01 -1.1725136630187826e+01 -7.1521443832222376e-01  1.8944511968847099e+01 -9.9179176388604713e+00 -5.7703483247348908e-01  1.9640701025749959e+01 -8.1283104593882030e+00 -4.4494674471869261e-01  2.0114500360194189e+01 -6.3508923048863144e+00 -3.4283737994086416e-01  2.0476948496467895e+01 -4.5567432387127731e+00 -2.9760755497280439e-01  -2.9926286161661981e+01 -3.2134641106874398e+01 -1.8493284326739301e+00  -2.5659103629414986e+01 -3.0997858326980335e+01 -1.8834595811211525e+00  -2.1473316672020474e+01 -2.9868107134471831e+01 -1.8714261928895690e+00  -1.7453151185412683e+01 -2.8726030018332267e+01 -1.8314428398200362e+00  -1.3623219062915254e+01 -2.7559457596072871e+01 -1.7800512950335674e+00  -9.9855901230183353e+00 -2.6361426705837108e+01 -1.7238225741627202e+00  -6.5383880116003974e+00 -2.5127353151415779e+01 -1.6642875677124487e+00  -3.2806031368900364e+00 -2.3853279181750668e+01 -1.6011930862846993e+00  -2.1311243657636686e-01 -2.2535654851681851e+01 -1.5333276299219190e+00  2.6598862809600288e+00 -2.1172558220376612e+01 -1.4584480233157149e+00  5.3285928645097478e+00 -1.9765016667847533e+01 -1.3735428919062909e+00  7.7769192928442621e+00 -1.8316177873011974e+01 -1.2763920560422228e+00  9.9871320362601299e+00 -1.6829212973817192e+01 -1.1675305030759511e+00  1.1947357996167979e+01 -1.5308586075942154e+01 -1.0495365092947684e+00  1.3653288036144010e+01 -1.3761950670068373e+01 -9.2472613110486346e-01  1.5104226353007652e+01 -1.2199371164507150e+01 -7.9424713204954456e-01  1.6299627563499300e+01 -1.0631129331462814e+01 -6.5873566338841560e-01  1.7238479819423038e+01 -9.0653784050660136e+00 -5.2039385972962737e-01  1.7924869276509856e+01 -7.5052146332874665e+00 -3.8842038074935992e-01  1.8391995124859395e+01 -5.9443594675699103e+00 -2.8692897171503995e-01  1.8753054166909152e+01 -4.3632368419775576e+00 -2.4225649763313725e-01  -3.1001236675651651e+01 -2.7734415908376953e+01 -1.8327615401391999e+00  -2.6740973603307417e+01 -2.6767200513986189e+01 -1.8662254465463546e+00  -2.2559611846158159e+01 -2.5806082406405718e+01 -1.8528615351935194e+00  -1.8544885684567411e+01 -2.4836692580779534e+01 -1.8107675196077291e+00  -1.4724150688393372e+01 -2.3848224966901491e+01 -1.7564652138286272e+00  -1.1100950575352480e+01 -2.2833696782936130e+01 -1.6964670140707305e+00  -7.6740614368723854e+00 -2.1788215295139526e+01 -1.6322578176369473e+00  -4.4429142820923495e+00 -2.0708213076310212e+01 -1.5636269548626669e+00  -1.4088254796072872e+00 -1.9591407163174058e+01 -1.4896543775149476e+00  1.4241096362630403e+00 -1.8437321756303955e+01 -1.4088998380762481e+00  4.0480352687898806e+00 -1.7247553506041605e+01 -1.3196964410582495e+00  6.4514763734823974e+00 -1.6024767093339353e+01 -1.2209148344392309e+00  8.6220619106774539e+00 -1.4771426633843530e+01 -1.1127271149090323e+00  1.0550444668953643e+01 -1.3490785848002446e+01 -9.9627327234403473e-01  1.2231495324731059e+01 -1.2188173984269795e+01 -8.7272890145854276e-01  1.3662569896745453e+01 -1.0870482784507972e+01 -7.4289978993079231e-01  1.4841585553531354e+01 -9.5446285014246222e+00 -6.0757257396784337e-01  1.5766777451361451e+01 -8.2157353251994003e+00 -4.6925128535659333e-01  1.6442415083688875e+01 -6.8849564471416187e+00 -3.3737497019117085e-01  1.6902766118952563e+01 -5.5471063801769400e+00 -2.3600535962842398e-01  1.7261699029393821e+01 -4.1903971731270584e+00 -1.9097489443034266e-01  -3.1894260186241127e+01 -2.3323721776601449e+01 -1.8211737481689094e+00  -2.7639575787252038e+01 -2.2535636969823393e+01 -1.8534522776521152e+00  -2.3462308293406277e+01 -2.1751897504502683e+01 -1.8382841982903597e+00  -1.9452567446371361e+01 -2.0961924506078194e+01 -1.7938551901773672e+00  -1.5639786702735213e+01 -2.0156515123051499e+01 -1.7366890950416587e+00  -1.2028794422167218e+01 -1.9329886485161666e+01 -1.6732738790137609e+00  -8.6190808887767290e+00 -1.8477581280637857e+01 -1.6050646680886824e+00  -5.4104784598682949e+00 -1.7596464873912716e+01 -1.5319337322303501e+00  -2.4044241896378056e+00 -1.6684853212280842e+01 -1.4532346833760008e+00  3.9545901799035577e-01 -1.5742661073411487e+01 -1.3680603487858314e+00  2.9829819192696738e+00 -1.4771233533986386e+01 -1.2754654306270603e+00  5.3497577177091200e+00 -1.3772548443346574e+01 -1.1748361558960134e+00  7.4868229400668378e+00 -1.2748555753903116e+01 -1.0661813738352552e+00  9.3867101886017021e+00 -1.1701816620278612e+01 -9.4997789042209058e-01  1.1044226713329813e+01 -1.0636193259208886e+01 -8.2680704480717448e-01  1.2455784869458940e+01 -9.5564411978786996e+00 -6.9720138306795620e-01  1.3618471449312233e+01 -8.4671603583679165e+00 -5.6192840140787770e-01  1.4530240226652083e+01 -7.3715328909717197e+00 -4.2358926491082316e-01  1.5195740922277984e+01 -6.2699163393813127e+00 -2.9167495416718070e-01  1.5649949614668266e+01 -5.1587579754391619e+00 -1.9004936526012017e-01  1.6006443262665208e+01 -4.0318505279680128e+00 -1.4410428581896054e-01  -3.2600249618768942e+01 -1.8906663906443384e+01 -1.8149052626250786e+00  -2.8349505276352957e+01 -1.8304401982220529e+01 -1.8455766133545579e+00  -2.4175461251914001e+01 -1.7705001196703847e+01 -1.8282035855807064e+00  -2.0170089328896182e+01 -1.7100428244294811e+01 -1.7812995663899511e+00  -1.6364531695694392e+01 -1.6482629691059945e+01 -1.7213390955473835e+00  -1.2764429762942807e+01 -1.5847916854343454e+01 -1.6548315433154328e+00  -9.3697122852892498e+00 -1.5192476411898843e+01 -1.5831784589453539e+00  -6.1804656209052951e+00 -1.4513534084282911e+01 -1.5063236056908196e+00  -3.1980796340740874e+00 -1.3809646559210799e+01 -1.4238328266541653e+00  -4.2561679490115339e-01 -1.3080666012823057e+01 -1.3351392511739935e+00  2.1320641163833258e+00 -1.2327458932051115e+01 -1.2396888424598371e+00  4.4686649865609693e+00 -1.1551361844252167e+01 -1.1371196286062843e+00  6.5774269698908450e+00 -1.0753854702926976e+01 -1.0273762636358661e+00  8.4522713131293532e+00 -9.9369220543228263e+00 -9.1064236412234367e-01  1.0088315285025134e+01 -9.1033688545070159e+00 -7.8720315895310122e-01  1.1481680180427926e+01 -8.2565036910153875e+00 -6.5740761593205521e-01  1.2629126406896901e+01 -7.3994409573052620e+00 -5.2195360176552907e-01  1.3528585139202809e+01 -6.5342740303271158e+00 -3.8343543077339221e-01  1.4185057622217244e+01 -5.6612486926682797e+00 -2.5128957473943808e-01  1.4633859459472921e+01 -4.7784047587108418e+00 -1.4912071442668040e-01  1.4987776882571419e+01 -3.8832788715753339e+00 -1.0193723852881734e-01  -3.3116388598000924e+01 -1.4484814205605144e+01 -1.8148953464804636e+00  -2.8867260605175368e+01 -1.4074071837887592e+01 -1.8435640965564797e+00  -2.4694767901204074e+01 -1.3664955427485268e+01 -1.8234262883206462e+00  -2.0692455022624273e+01 -1.3250774508802767e+01 -1.7737413931984918e+00  -1.6893549257574527e+01 -1.2824164830605202e+01 -1.7108822483259190e+00  -1.3303625524985584e+01 -1.2384826183882021e+01 -1.6415360766182516e+00  -9.9224388927880067e+00 -1.1929275685371968e+01 -1.5668638762528373e+00  -6.7501254611547559e+00 -1.1454921043843790e+01 -1.4868281486345787e+00  -3.7879454751726573e+00 -1.0960385013592170e+01 -1.4011518959450651e+00  -1.0384459334388880e+00 -1.0445304775265146e+01 -1.3094873317252305e+00  1.4945284586223857e+00 -9.9100538097107247e+00 -1.2115019756130383e+00  3.8061149779108239e+00 -9.3553996897202136e+00 -1.1069686680606037e+00  5.8910319348000204e+00 -8.7823473525396540e+00 -9.9581536401224990e-01  7.7442387794389740e+00 -8.1923288732799016e+00 -8.7809900614694847e-01  9.3612942407180864e+00 -7.5873314080358369e+00 -7.5395808757300198e-01  1.0738372479647252e+01 -6.9696727347324980e+00 -6.2362684553971803e-01  1.1872200386812541e+01 -6.3415566759848954e+00 -4.8773260006803365e-01  1.2760806553992019e+01 -5.7045611082535244e+00 -3.4882186351957639e-01  1.3409448956806830e+01 -5.0591905861570288e+00 -2.1622968938404732e-01  1.3853513895884401e+01 -4.4048705616190302e+00 -1.1328988374797454e-01  1.4204806597153031e+01 -3.7416225890634740e+00 -6.4677712583782840e-02  -3.3438801769908665e+01 -1.0054423558901792e+01 -1.8222939841301635e+00  -2.9188868486764704e+01 -9.8418517306585915e+00 -1.8489073232136004e+00  -2.5017245074101375e+01 -9.6299869464092183e+00 -1.8261125412012911e+00  -2.1015076330023337e+01 -9.4103282489282130e+00 -1.7729098638459899e+00  -1.7222312338854486e+01 -9.1779971208021145e+00 -1.7059780309725217e+00  -1.3642687374743236e+01 -8.9372382381928546e+00 -1.6337387227084335e+00  -1.0274255172284885e+01 -8.6842262517398048e+00 -1.5563012926868900e+00  -7.1170939080253088e+00 -8.4164236066390501e+00 -1.4734333014869505e+00  -4.1724000546052338e+00 -8.1324822156061654e+00 -1.3849521107822151e+00  -1.4423355379504981e+00 -7.8318114216025227e+00 -1.2906514008857766e+00  1.0699954698600664e+00 -7.5143397400770988e+00 -1.1903296388550970e+00  3.3607323558865057e+00 -7.1803222060562133e+00 -1.0838386492374770e+00  5.4256209439486671e+00 -6.8302785798102059e+00 -9.7110951645140808e-01  7.2604097276316990e+00 -6.4651007936361324e+00 -8.5214568149196823e-01  8.8611073750453908e+00 -6.0861109464973797e+00 -7.2701184870880875e-01  1.0224083391096832e+01 -5.6949286754892690e+00 -5.9587168708732341e-01  1.1346159152224647e+01 -5.2932154587852018e+00 -4.5929431089030281e-01  1.2225482234368894e+01 -4.8823869479520150e+00 -3.1976836173741441e-01  1.2867457139101601e+01 -4.4633970042457030e+00 -1.8651581711692969e-01  1.3307369233209792e+01 -4.0368667154801283e+00 -8.2615192787202960e-02  1.3656031162417891e+01 -3.6045556772476752e+00 -3.2455929133504938e-02  -3.3557926507675731e+01 -5.6110231772637631e+00 -1.8351985506521840e+00  -2.9308299975098464e+01 -5.6015540231923291e+00 -1.8606568835234460e+00  -2.5137027045509363e+01 -5.5870110321711950e+00 -1.8366472395135065e+00  -2.1136349041303895e+01 -5.5669860934695707e+00 -1.7827256753183145e+00  -1.7347427034092579e+01 -5.5390918288142572e+00 -1.7076792163771588e+00  -1.3779207735831161e+01 -5.5015242989684232e+00 -1.6318137735141833e+00  -1.0423164593831752e+01 -5.4537407184191666e+00 -1.5516301421990075e+00  -7.2796687993142486e+00 -5.3942707922020849e+00 -1.4661157254645376e+00  -4.3501888640193176e+00 -5.3220375215823115e+00 -1.3750569280597937e+00  -1.6366790255936892e+00 -5.2363026891512492e+00 -1.2783231506164514e+00  8.5829300966725830e-01 -5.1366140707371830e+00 -1.1757892457571155e+00  3.1315932632878769e+00 -5.0227539689429470e+00 -1.0673553374522393e+00  5.1797184764747879e+00 -4.8947496084425346e+00 -9.5296154782659281e-01  6.9990334049448268e+00 -4.7529597012041034e+00 -8.3258902623125819e-01  8.5859559831211332e+00 -4.5981298927268455e+00 -7.0626344216201020e-01  9.9370820251319252e+00 -4.4313517980078982e+00 -5.7410315766160469e-01  1.1049347552907591e+01 -4.2539588166792912e+00 -4.3663093804010061e-01  1.1920971773974118e+01 -4.0674069244914444e+00 -2.9627969091020800e-01  1.2557385922833127e+01 -3.8732032339351279e+00 -1.6216415143067198e-01  1.2993660632566248e+01 -3.6730636728124946e+00 -5.7136558242760010e-02  1.3339691499040491e+01 -3.4701392005390232e+00 -5.3486563920333288e-03  -3.3457799375890282e+01 -1.1700579912033986e+00 -1.8492804339437876e+00  -2.9213381733333353e+01 -1.3651775854792036e+00 -1.8729798866504836e+00  -2.5047053159980027e+01 -1.5506520355193232e+00 -1.8457129174882936e+00  -2.1056239673867349e+01 -1.7292413972223986e+00 -1.7865973719932076e+00  -1.7275465222091736e+01 -1.9059813711027926e+00 -1.7132645966654436e+00  -1.3715578067667312e+01 -2.0754248209072617e+00 -1.6354514469955514e+00  -1.0369013687634482e+01 -2.2350154310803929e+00 -1.5528429179254533e+00  -7.2368719883016395e+00 -2.3853219582441887e+00 -1.4648354509885719e+00  -4.3203465632565914e+00 -2.5257823879306311e+00 -1.3713383790377365e+00  -1.6209169002788928e+00 -2.6555615375838388e+00 -1.2722913030312408e+00  8.5939964460508766e-01 -2.7738555743186688e+00 -1.1676197525888787e+00  3.1180742998185100e+00 -2.8799856749290402e+00 -1.0572546578792090e+00  5.1522005961792434e+00 -2.9734713765870282e+00 -9.4114460261856725e-01  6.9586490092995126e+00 -3.0541286562478032e+00 -8.1926036046469464e-01  8.5341990865816335e+00 -3.1221563007468434e+00 -6.9160392449377828e-01  9.8756547032879443e+00 -3.1781873989177987e+00 -5.5826100087903929e-01  1.0980027493334994e+01 -3.2233213130499334e+00 -4.1971547354038219e-01  1.1845514254116026e+01 -3.2591514846005651e+00 -2.7834932435834792e-01  1.2477433574155615e+01 -3.2878071206532327e+00 -1.4318229704331450e-01  1.2910539105619044e+01 -3.3121100586295822e+00 -3.6874762524112037e-02  1.3253907448604327e+01 -3.3365746653887363e+00 1.6607186651363896e-02  -3.3150281808681569e+01 3.2584236781676159e+00 -1.8690104433024566e+00  -2.8911994328993615e+01 2.8595793554170972e+00 -1.8908007795822253e+00  -2.4752797766471105e+01 2.4720056179612131e+00 -1.8614515744016549e+00  -2.0770659500180361e+01 2.0910639580041601e+00 -1.8004559958809452e+00  -1.6999150852546169e+01 1.7127867572411806e+00 -1.7260202665997584e+00  -1.3445436357403713e+01 1.3406375564157362e+00 -1.6459071132529741e+00  -1.0107862762100895e+01 9.7383266761920351e-01 -1.5603883890240142e+00  -6.9863302658903113e+00 6.1302240217510073e-01 -1.4697022718936008e+00  -4.0814303325012000e+00 2.5907802396207491e-01 -1.3737435770367739e+00  -1.3942803324913742e+00 -8.6842022731403776e-02 -1.2724149159550218e+00  1.0734873745818470e+00 -4.2351209571373333e-01 -1.1656367784558233e+00  3.3197902976427138e+00 -7.4976305304168733e-01 -1.0533440168287407e+00  5.3421899782495661e+00 -1.0645772584108151e+00 -9.3548460109091547e-01  7.1379834496855548e+00 -1.3671967487240995e+00 -8.1202000583547840e-01  8.7042771722889043e+00 -1.6572472972350842e+00 -6.8293348964339606e-01  1.0038059385838077e+01 -1.9348815994331781e+00 -5.4828282110014548e-01  1.1136360087772047e+01 -2.2009499835014079e+00 -4.0851565160427999e-01  1.1997231942600033e+01 -2.4571884188277844e+00 -2.6596582510179739e-01  1.2625707303185930e+01 -2.7063952213817011e+00 -1.2957010006204667e-01  1.3056084447390857e+01 -2.9526203123085617e+00 -2.1832080151775402e-02  1.3396686397706079e+01 -3.2019971655959978e+00 3.3408667687510732e-02  -3.2641923030694898e+01 7.6767182717895777e+00 -1.8954906954280366e+00  -2.8407300392920643e+01 7.0761765791245361e+00 -1.915527