<?xml version="1.0"?>
<VTKFile type="UnstructuredGrid"  version="0.1"  >
<UnstructuredGrid>
<Piece  NumberOfPoints="9261" NumberOfCells="48000">
<Points>
<DataArray  type="Float64"  NumberOfComponents="3"  format="ascii">0 0 0  0.015 0 0  0.03 0 0  0.045 0 0  0.06 0 0  0.075 0 0  0.09 0 0  0.105 0 0  0.12 0 0  0.135 0 0  0.15 0 0  0.165 0 0  0.18 0 0  0.195 0 0  0.21 0 0  0.225 0 0  0.24 0 0  0.255 0 0  0.27 0 0  0.285 0 0  0.3 0 0  0 0.015 0  0.015 0.015 0  0.03 0.015 0  0.045 0.015 0  0.06 0.015 0  0.075 0.015 0  0.09 0.015 0  0.105 0.015 0  0.12 0.015 0  0.135 0.015 0  0.15 0.015 0  0.165 0.015 0  0.18 0.015 0  0.195 0.015 0  0.21 0.015 0  0.225 0.015 0  0.24 0.015 0  0.255 0.015 0  0.27 0.015 0  0.285 0.015 0  0.3 0.015 0  0 0.03 0  0.015 0.03 0  0.03 0.03 0  0.045 0.03 0  0.06 0.03 0  0.075 0.03 0  0.09 0.03 0  0.105 0.03 0  0.12 0.03 0  0.135 0.03 0  0.15 0.03 0  0.165 0.03 0  0.18 0.03 0  0.195 0.03 0  0.21 0.03 0  0.225 0.03 0  0.24 0.03 0  0.255 0.03 0  0.27 0.03 0  0.285 0.03 0  0.3 0.03 0  0 0.045 0  0.015 0.045 0  0.03 0.045 0  0.045 0.045 0  0.06 0.045 0  0.075 0.045 0  0.09 0.045 0  0.105 0.045 0  0.12 0.045 0  0.135 0.045 0  0.15 0.045 0  0.165 0.045 0  0.18 0.045 0  0.195 0.045 0  0.21 0.045 0  0.225 0.045 0  0.24 0.045 0  0.255 0.045 0  0.27 0.045 0  0.285 0.045 0  0.3 0.045 0  0 0.06 0  0.015 0.06 0  0.03 0.06 0  0.045 0.06 0  0.06 0.06 0  0.075 0.06 0  0.09 0.06 0  0.105 0.06 0  0.12 0.06 0  0.135 0.06 0  0.15 0.06 0  0.165 0.06 0  0.18 0.06 0  0.195 0.06 0  0.21 0.06 0  0.225 0.06 0  0.24 0.06 0  0.255 0.06 0  0.27 0.06 0  0.285 0.06 0  0.3 0.06 0  0 0.075 0  0.015 0.075 0  0.03 0.075 0  0.045 0.075 0  0.06 0.075 0  0.075 0.075 0  0.09 0.075 0  0.105 0.075 0  0.12 0.075 0  0.135 0.075 0  0.15 0.075 0  0.165 0.075 0  0.18 0.075 0  0.195 0.075 0  0.21 0.075 0  0.225 0.075 0  0.24 0.075 0  0.255 0.075 0  0.27 0.075 0  0.285 0.075 0  0.3 0.075 0  0 0.09 0  0.015 0.09 0  0.03 0.09 0  0.045 0.09 0  0.06 0.09 0  0.075 0.09 0  0.09 0.09 0  0.105 0.09 0  0.12 0.09 0  0.135 0.09 0  0.15 0.09 0  0.165 0.09 0  0.18 0.09 0  0.195 0.09 0  0.21 0.09 0  0.225 0.09 0  0.24 0.09 0  0.255 0.09 0  0.27 0.09 0  0.285 0.09 0  0.3 0.09 0  0 0.105 0  0.015 0.105 0  0.03 0.105 0  0.045 0.105 0  0.06 0.105 0  0.075 0.105 0  0.09 0.105 0  0.105 0.105 0  0.12 0.105 0  0.135 0.105 0  0.15 0.105 0  0.165 0.105 0  0.18 0.105 0  0.195 0.105 0  0.21 0.105 0  0.225 0.105 0  0.24 0.105 0  0.255 0.105 0  0.27 0.105 0  0.285 0.105 0  0.3 0.105 0  0 0.12 0  0.015 0.12 0  0.03 0.12 0  0.045 0.12 0  0.06 0.12 0  0.075 0.12 0  0.09 0.12 0  0.105 0.12 0  0.12 0.12 0  0.135 0.12 0  0.15 0.12 0  0.165 0.12 0  0.18 0.12 0  0.195 0.12 0  0.21 0.12 0  0.225 0.12 0  0.24 0.12 0  0.255 0.12 0  0.27 0.12 0  0.285 0.12 0  0.3 0.12 0  0 0.135 0  0.015 0.135 0  0.03 0.135 0  0.045 0.135 0  0.06 0.135 0  0.075 0.135 0  0.09 0.135 0  0.105 0.135 0  0.12 0.135 0  0.135 0.135 0  0.15 0.135 0  0.165 0.135 0  0.18 0.135 0  0.195 0.135 0  0.21 0.135 0  0.225 0.135 0  0.24 0.135 0  0.255 0.135 0  0.27 0.135 0  0.285 0.135 0  0.3 0.135 0  0 0.15 0  0.015 0.15 0  0.03 0.15 0  0.045 0.15 0  0.06 0.15 0  0.075 0.15 0  0.09 0.15 0  0.105 0.15 0  0.12 0.15 0  0.135 0.15 0  0.15 0.15 0  0.165 0.15 0  0.18 0.15 0  0.195 0.15 0  0.21 0.15 0  0.225 0.15 0  0.24 0.15 0  0.255 0.15 0  0.27 0.15 0  0.285 0.15 0  0.3 0.15 0  0 0.165 0  0.015 0.165 0  0.03 0.165 0  0.045 0.165 0  0.06 0.165 0  0.075 0.165 0  0.09 0.165 0  0.105 0.165 0  0.12 0.165 0  0.135 0.165 0  0.15 0.165 0  0.165 0.165 0  0.18 0.165 0  0.195 0.165 0  0.21 0.165 0  0.225 0.165 0  0.24 0.165 0  0.255 0.165 0  0.27 0.165 0  0.285 0.165 0  0.3 0.165 0  0 0.18 0  0.015 0.18 0  0.03 0.18 0  0.045 0.18 0  0.06 0.18 0  0.075 0.18 0  0.09 0.18 0  0.105 0.18 0  0.12 0.18 0  0.135 0.18 0  0.15 0.18 0  0.165 0.18 0  0.18 0.18 0  0.195 0.18 0  0.21 0.18 0  0.225 0.18 0  0.24 0.18 0  0.255 0.18 0  0.27 0.18 0  0.285 0.18 0  0.3 0.18 0  0 0.195 0  0.015 0.195 0  0.03 0.195 0  0.045 0.195 0  0.06 0.195 0  0.075 0.195 0  0.09 0.195 0  0.105 0.195 0  0.12 0.195 0  0.135 0.195 0  0.15 0.195 0  0.165 0.195 0  0.18 0.195 0  0.195 0.195 0  0.21 0.195 0  0.225 0.195 0  0.24 0.195 0  0.255 0.195 0  0.27 0.195 0  0.285 0.195 0  0.3 0.195 0  0 0.21 0  0.015 0.21 0  0.03 0.21 0  0.045 0.21 0  0.06 0.21 0  0.075 0.21 0  0.09 0.21 0  0.105 0.21 0  0.12 0.21 0  0.135 0.21 0  0.15 0.21 0  0.165 0.21 0  0.18 0.21 0  0.195 0.21 0  0.21 0.21 0  0.225 0.21 0  0.24 0.21 0  0.255 0.21 0  0.27 0.21 0  0.285 0.21 0  0.3 0.21 0  0 0.225 0  0.015 0.225 0  0.03 0.225 0  0.045 0.225 0  0.06 0.225 0  0.075 0.225 0  0.09 0.225 0  0.105 0.225 0  0.12 0.225 0  0.135 0.225 0  0.15 0.225 0  0.165 0.225 0  0.18 0.225 0  0.195 0.225 0  0.21 0.225 0  0.225 0.225 0  0.24 0.225 0  0.255 0.225 0  0.27 0.225 0  0.285 0.225 0  0.3 0.225 0  0 0.24 0  0.015 0.24 0  0.03 0.24 0  0.045 0.24 0  0.06 0.24 0  0.075 0.24 0  0.09 0.24 0  0.105 0.24 0  0.12 0.24 0  0.135 0.24 0  0.15 0.24 0  0.165 0.24 0  0.18 0.24 0  0.195 0.24 0  0.21 0.24 0  0.225 0.24 0  0.24 0.24 0  0.255 0.24 0  0.27 0.24 0  0.285 0.24 0  0.3 0.24 0  0 0.255 0  0.015 0.255 0  0.03 0.255 0  0.045 0.255 0  0.06 0.255 0  0.075 0.255 0  0.09 0.255 0  0.105 0.255 0  0.12 0.255 0  0.135 0.255 0  0.15 0.255 0  0.165 0.255 0  0.18 0.255 0  0.195 0.255 0  0.21 0.255 0  0.225 0.255 0  0.24 0.255 0  0.255 0.255 0  0.27 0.255 0  0.285 0.255 0  0.3 0.255 0  0 0.27 0  0.015 0.27 0  0.03 0.27 0  0.045 0.27 0  0.06 0.27 0  0.075 0.27 0  0.09 0.27 0  0.105 0.27 0  0.12 0.27 0  0.135 0.27 0  0.15 0.27 0  0.165 0.27 0  0.18 0.27 0  0.195 0.27 0  0.21 0.27 0  0.225 0.27 0  0.24 0.27 0  0.255 0.27 0  0.27 0.27 0  0.285 0.27 0  0.3 0.27 0  0 0.285 0  0.015 0.285 0  0.03 0.285 0  0.045 0.285 0  0.06 0.285 0  0.075 0.285 0  0.09 0.285 0  0.105 0.285 0  0.12 0.285 0  0.135 0.285 0  0.15 0.285 0  0.165 0.285 0  0.18 0.285 0  0.195 0.285 0  0.21 0.285 0  0.225 0.285 0  0.24 0.285 0  0.255 0.285 0  0.27 0.285 0  0.285 0.285 0  0.3 0.285 0  0 0.3 0  0.015 0.3 0  0.03 0.3 0  0.045 0.3 0  0.06 0.3 0  0.075 0.3 0  0.09 0.3 0  0.105 0.3 0  0.12 0.3 0  0.135 0.3 0  0.15 0.3 0  0.165 0.3 0  0.18 0.3 0  0.195 0.3 0  0.21 0.3 0  0.225 0.3 0  0.24 0.3 0  0.255 0.3 0  0.27 0.3 0  0.285 0.3 0  0.3 0.3 0  0 0 0.00075  0.015 0 0.00075  0.03 0 0.00075  0.045 0 0.00075  0.06 0 0.00075  0.075 0 0.00075  0.09 0 0.00075  0.105 0 0.00075  0.12 0 0.00075  0.135 0 0.00075  0.15 0 0.00075  0.165 0 0.00075  0.18 0 0.00075  0.195 0 0.00075  0.21 0 0.00075  0.225 0 0.00075  0.24 0 0.00075  0.255 0 0.00075  0.27 0 0.00075  0.285 0 0.00075  0.3 0 0.00075  0 0.015 0.00075  0.015 0.015 0.00075  0.03 0.015 0.00075  0.045 0.015 0.00075  0.06 0.015 0.00075  0.075 0.015 0.00075  0.09 0.015 0.00075  0.105 0.015 0.00075  0.12 0.015 0.00075  0.135 0.015 0.00075  0.15 0.015 0.00075  0.165 0.015 0.00075  0.18 0.015 0.00075  0.195 0.015 0.00075  0.21 0.015 0.00075  0.225 0.015 0.00075  0.24 0.015 0.00075  0.255 0.015 0.00075  0.27 0.015 0.00075  0.285 0.015 0.00075  0.3 0.015 0.00075  0 0.03 0.00075  0.015 0.03 0.00075  0.03 0.03 0.00075  0.045 0.03 0.00075  0.06 0.03 0.00075  0.075 0.03 0.00075  0.09 0.03 0.00075  0.105 0.03 0.00075  0.12 0.03 0.00075  0.135 0.03 0.00075  0.15 0.03 0.00075  0.165 0.03 0.00075  0.18 0.03 0.00075  0.195 0.03 0.00075  0.21 0.03 0.00075  0.225 0.03 0.00075  0.24 0.03 0.00075  0.255 0.03 0.00075  0.27 0.03 0.00075  0.285 0.03 0.00075  0.3 0.03 0.00075  0 0.045 0.00075  0.015 0.045 0.00075  0.03 0.045 0.00075  0.045 0.045 0.00075  0.06 0.045 0.00075  0.075 0.045 0.00075  0.09 0.045 0.00075  0.105 0.045 0.00075  0.12 0.045 0.00075  0.135 0.045 0.00075  0.15 0.045 0.00075  0.165 0.045 0.00075  0.18 0.045 0.00075  0.195 0.045 0.00075  0.21 0.045 0.00075  0.225 0.045 0.00075  0.24 0.045 0.00075  0.255 0.045 0.00075  0.27 0.045 0.00075  0.285 0.045 0.00075  0.3 0.045 0.00075  0 0.06 0.00075  0.015 0.06 0.00075  0.03 0.06 0.00075  0.045 0.06 0.00075  0.06 0.06 0.00075  0.075 0.06 0.00075  0.09 0.06 0.00075  0.105 0.06 0.00075  0.12 0.06 0.00075  0.135 0.06 0.00075  0.15 0.06 0.00075  0.165 0.06 0.00075  0.18 0.06 0.00075  0.195 0.06 0.00075  0.21 0.06 0.00075  0.225 0.06 0.00075  0.24 0.06 0.00075  0.255 0.06 0.00075  0.27 0.06 0.00075  0.285 0.06 0.00075  0.3 0.06 0.00075  0 0.075 0.00075  0.015 0.075 0.00075  0.03 0.075 0.00075  0.045 0.075 0.00075  0.06 0.075 0.00075  0.075 0.075 0.00075  0.09 0.075 0.00075  0.105 0.075 0.00075  0.12 0.075 0.00075  0.135 0.075 0.00075  0.15 0.075 0.00075  0.165 0.075 0.00075  0.18 0.075 0.00075  0.195 0.075 0.00075  0.21 0.075 0.00075  0.225 0.075 0.00075  0.24 0.075 0.00075  0.255 0.075 0.00075  0.27 0.075 0.00075  0.285 0.075 0.00075  0.3 0.075 0.00075  0 0.09 0.00075  0.015 0.09 0.00075  0.03 0.09 0.00075  0.045 0.09 0.00075  0.06 0.09 0.00075  0.075 0.09 0.00075  0.09 0.09 0.00075  0.105 0.09 0.00075  0.12 0.09 0.00075  0.135 0.09 0.00075  0.15 0.09 0.00075  0.165 0.09 0.00075  0.18 0.09 0.00075  0.195 0.09 0.00075  0.21 0.09 0.00075  0.225 0.09 0.00075  0.24 0.09 0.00075  0.255 0.09 0.00075  0.27 0.09 0.00075  0.285 0.09 0.00075  0.3 0.09 0.00075  0 0.105 0.00075  0.015 0.105 0.00075  0.03 0.105 0.00075  0.045 0.105 0.00075  0.06 0.105 0.00075  0.075 0.105 0.00075  0.09 0.105 0.00075  0.105 0.105 0.00075  0.12 0.105 0.00075  0.135 0.105 0.00075  0.15 0.105 0.00075  0.165 0.105 0.00075  0.18 0.105 0.00075  0.195 0.105 0.00075  0.21 0.105 0.00075  0.225 0.105 0.00075  0.24 0.105 0.00075  0.255 0.105 0.00075  0.27 0.105 0.00075  0.285 0.105 0.00075  0.3 0.105 0.00075  0 0.12 0.00075  0.015 0.12 0.00075  0.03 0.12 0.00075  0.045 0.12 0.00075  0.06 0.12 0.00075  0.075 0.12 0.00075  0.09 0.12 0.00075  0.105 0.12 0.00075  0.12 0.12 0.00075  0.135 0.12 0.00075  0.15 0.12 0.00075  0.165 0.12 0.00075  0.18 0.12 0.00075  0.195 0.12 0.00075  0.21 0.12 0.00075  0.225 0.12 0.00075  0.24 0.12 0.00075  0.255 0.12 0.00075  0.27 0.12 0.00075  0.285 0.12 0.00075  0.3 0.12 0.00075  0 0.135 0.00075  0.015 0.135 0.00075  0.03 0.135 0.00075  0.045 0.135 0.00075  0.06 0.135 0.00075  0.075 0.135 0.00075  0.09 0.1
[...]
<PointData  Vectors="f_205"> 
<DataArray  type="Float64"  Name="f_205"  NumberOfComponents="3" format="ascii">-2.4218029238791029e+01 -4.8027402695581848e+01 -1.8484720514724755e+00  -2.0075699833451051e+01 -4.6615486059387429e+01 -1.8796913290560298e+00  -1.5947807272756970e+01 -4.5151453371966227e+01 -1.8841261762913806e+00  -1.1887007122898257e+01 -4.3593247163973658e+01 -1.8691386116436910e+00  -7.9404478177400000e+00 -4.1931468944955320e+01 -1.8413678266509699e+00  -4.1409053275705059e+00 -4.0172170346926386e+01 -1.8056467274916825e+00  -5.0731474756843742e-01 -3.8323915210260836e+01 -1.7645727405092344e+00  2.9495748834212683e+00 -3.6390783255463028e+01 -1.7185509686745697e+00  6.2202982197799077e+00 -3.4370923748607787e+01 -1.6662352222623833e+00  9.2911651271356650e+00 -3.2259408913208183e+01 -1.6053330685476344e+00  1.2141962031327294e+01 -3.0053567037078921e+01 -1.5336807704548485e+00  1.4747624571076768e+01 -2.7758361652942579e+01 -1.4502308604673253e+00  1.7082965236384418e+01 -2.5389425006124938e+01 -1.3554757411611060e+00  1.9128140205718111e+01 -2.2972739714450576e+01 -1.2511670154729506e+00  2.0872741503438636e+01 -2.0541962827579965e+01 -1.1397576590902576e+00  2.2318252810770833e+01 -1.8135331971625266e+01 -1.0242472951129882e+00  2.3480418787165462e+01 -1.5792809857248635e+01 -9.0877759356190768e-01  2.4393055080697632e+01 -1.3551715242898112e+01 -7.9967874586990950e-01  2.5112364875077017e+01 -1.1437378573374616e+01 -7.0618928933226588e-01  2.5717404509866924e+01 -9.4465106730188442e+00 -6.3989963095628066e-01  2.6299861449685093e+01 -7.5304045085184788e+00 -6.1238222148778021e-01  -2.5648672831062257e+01 -4.3899360947652823e+01 -1.8194648896824166e+00  -2.1529726899942734e+01 -4.2536967794697695e+01 -1.8574910596523291e+00  -1.7448818577575114e+01 -4.1167451193631308e+01 -1.8661557165655502e+00  -1.3453747934859006e+01 -3.9736776854582054e+01 -1.8522214045117869e+00  -9.5819143575909838e+00 -3.8224060326806253e+01 -1.8232847551861719e+00  -5.8595000565126982e+00 -3.6626289202875483e+01 -1.7851805131557126e+00  -2.3031081605569512e+00 -3.4946802643161760e+01 -1.7412673459218053e+00  1.0762476939683203e+00 -3.3188481624945865e+01 -1.6923964728471261e+00  4.2686083877393619e+00 -3.1351500234988361e+01 -1.6373860566624916e+00  7.2615025438417069e+00 -2.9434597830599536e+01 -1.5738862032723708e+00  1.0038490861259984e+01 -2.7438373284744650e+01 -1.4995238845093466e+00  1.2580372265073436e+01 -2.5368847479593310e+01 -1.4129983424299581e+00  1.4868501726415781e+01 -2.3239688189557945e+01 -1.3146412167281700e+00  1.6888656534391544e+01 -2.1072314515225912e+01 -1.2062318226588167e+00  1.8633934942474863e+01 -1.8894204220461880e+01 -1.0904395868369841e+00  2.0106426621300280e+01 -1.6736328910731888e+01 -9.7060420422473481e-01  2.1318696076229191e+01 -1.4629886073010939e+01 -8.5127618658250681e-01  2.2296274966742175e+01 -1.2601222420723476e+01 -7.3924352010291816e-01  2.3080983374940484e+01 -1.0662892189184122e+01 -6.4415514597933676e-01  2.3733386992207393e+01 -8.7994661804179000e+00 -5.7750743417482142e-01  2.4334745147425341e+01 -6.9485176051373054e+00 -5.4585736888421599e-01  -2.7040641785803899e+01 -3.9736481769661516e+01 -1.7893273395219151e+00  -2.2940084243595397e+01 -3.8451300171730011e+01 -1.8311491781253444e+00  -1.8880790465598775e+01 -3.7181539551114454e+01 -1.8436872236386790e+00  -1.4918684662114716e+01 -3.5877226817284289e+01 -1.8305701578116884e+00  -1.1090382810165393e+01 -3.4511815152639834e+01 -1.8000554476405477e+00  -7.4191055431974506e+00 -3.3075361684370733e+01 -1.7588719033688611e+00  -3.9187793108422135e+00 -3.1566264526816894e+01 -1.7110884766900638e+00  -5.9848439370570938e-01 -2.9985646269697391e+01 -1.6580382489699090e+00  2.5335001041556122e+00 -2.8334853539365358e+01 -1.5988562582454844e+00  5.4668404377210065e+00 -2.6615486122546649e+01 -1.5313958647506680e+00  8.1880786162445816e+00 -2.4830918641170705e+01 -1.4533704936515315e+00  1.0681639705850056e+01 -2.2988185715968012e+01 -1.3634357981817196e+00  1.2932456571036614e+01 -2.1099278589200143e+01 -1.2617907871691396e+00  1.4928975703253167e+01 -1.9181335779620913e+01 -1.1500963773764157e+00  1.6665328131959303e+01 -1.7255635808120026e+01 -1.0310280805974144e+00  1.8142557354787524e+01 -1.5345646963497458e+01 -9.0813205955179810e-01  1.9369949541953730e+01 -1.3473854922142490e+01 -7.8639157062654097e-01  2.0367785701128330e+01 -1.1656819499220770e+01 -6.7323842662562228e-01  2.1171736625957443e+01 -9.8975980546228648e+00 -5.7908327386753811e-01  2.1837992331520553e+01 -8.1753210300551586e+00 -5.1596479450232613e-01  2.2451002772910414e+01 -6.4325397161431432e+00 -4.8836245263388234e-01  -2.8335102929907901e+01 -3.5533133608352351e+01 -1.7613978977755294e+00  -2.4250779845240046e+01 -3.4355862832094779e+01 -1.8054300225636364e+00  -2.0204338580801437e+01 -3.3201307672067472e+01 -1.8202645145448475e+00  -1.6259161368522840e+01 -3.2028440611175334e+01 -1.8076458992348581e+00  -1.2455289868242039e+01 -3.0811319487798485e+01 -1.7756205021974101e+00  -8.8161443565256441e+00 -2.9536806214699379e+01 -1.7313210413881297e+00  -5.3544241253545950e+00 -2.8200038219216349e+01 -1.6793189786931662e+00  -2.0775107669499642e+00 -2.6800529431959912e+01 -1.6214437236041936e+00  1.0082224762622751e+00 -2.5339950058595477e+01 -1.5573272278748189e+00  3.8946575998556812e+00 -2.3821460935209270e+01 -1.4853035753549837e+00  6.5709383769372005e+00 -2.2250022716545512e+01 -1.4034549390407385e+00  9.0242519447391469e+00 -2.0633053214463413e+01 -1.3105731634148778e+00  1.1241922411604925e+01 -1.8980939470651336e+01 -1.2067266991847732e+00  1.3213826686163452e+01 -1.7307118019647383e+01 -1.0932903468783821e+00  1.4934173124955352e+01 -1.5627411211860416e+01 -9.7268953537302560e-01  1.6402721523281958e+01 -1.3958657807485146e+01 -8.4842578930284085e-01  1.7626442548907445e+01 -1.2315952533477757e+01 -7.2569196603614816e-01  1.8622947801989511e+01 -1.0708465798478128e+01 -6.1233319869522951e-01  1.9425953320975744e+01 -9.1337072438132427e+00 -5.1925465932427928e-01  2.0091850590251180e+01 -7.5707946277502201e+00 -4.5882157128010842e-01  2.0708892252291633e+01 -5.9743385589687295e+00 -4.3426302683711515e-01  -2.9496503982142748e+01 -3.1295128777348609e+01 -1.7373928964591778e+00  -2.5426297601928400e+01 -3.0250623179102774e+01 -1.7824911708186115e+00  -2.1389258314861404e+01 -2.9228112354449550e+01 -1.7982943826405564e+00  -1.7453922509528134e+01 -2.8195848771069791e+01 -1.7854512249975054e+00  -1.3664130190335232e+01 -2.7131382966541132e+01 -1.7517237330502948e+00  -1.0045079501350520e+01 -2.6021427914995574e+01 -1.7043249098816999e+00  -6.6096348902938287e+00 -2.4859727952316184e+01 -1.6481134819431285e+00  -3.3643761468194415e+00 -2.3644736098841680e+01 -1.5853335703530709e+00  -3.1429049466586140e-01 -2.2377937333956492e+01 -1.5161379828068837e+00  2.5343529051641318e+00 -2.1062950912525107e+01 -1.4394336798707328e+00  5.1729217343350307e+00 -1.9705175817362228e+01 -1.3537941274315191e+00  7.5909258940906819e+00 -1.8311707043602876e+01 -1.2582575453240417e+00  9.7776210296322592e+00 -1.6891307064648657e+01 -1.1528129879665736e+00  1.1723944554017427e+01 -1.5454339085590757e+01 -1.0385133190031999e+00  1.3424042446437115e+01 -1.4012185323877208e+01 -9.1741461750286779e-01  1.4876719751660788e+01 -1.2576452043602753e+01 -7.9281997830335549e-01  1.6087602931321417e+01 -1.1156639273453374e+01 -6.6995623708745633e-01  1.7073242777212137e+01 -9.7569564054675340e+00 -5.5688147522900522e-01  1.7867283406541894e+01 -8.3723932424612428e+00 -4.6475717022235602e-01  1.8527518293424837e+01 -6.9849047252946894e+00 -4.0603548191541183e-01  1.9144701903076200e+01 -5.5616917697894994e+00 -3.8314530904781363e-01  -3.0502997723334790e+01 -2.7030971980611373e+01 -1.7182101686533888e+00  -2.6444748709108055e+01 -2.6137598136317962e+01 -1.7635487070459275e+00  -2.2415423586539472e+01 -2.5262063985920900e+01 -1.7793651712550052e+00  -1.8486870021116310e+01 -2.4380631855869346e+01 -1.7656385900307949e+00  -1.4706042643827391e+01 -2.3475180604658387e+01 -1.7299425182767683e+00  -1.1100241916927622e+01 -2.2533945761612422e+01 -1.6794821755576939e+00  -7.6832548944007950e+00 -2.1550670910682818e+01 -1.6192713503522500e+00  -4.4616125739384183e+00 -2.0523348175386491e+01 -1.5518641222480585e+00  -1.4395226384294355e+00 -1.9453079701106805e+01 -1.4778628637991655e+00  1.3781144212180971e+00 -1.8343224669718516e+01 -1.3967045840745993e+00  3.9844785314356623e+00 -1.7198788698901968e+01 -1.3074453484489559e+00  6.3710450846088520e+00 -1.6026001368902527e+01 -1.2094051342361767e+00  8.5287430230391710e+00 -1.4831988048919740e+01 -1.1025603445964895e+00  1.0449508882568058e+01 -1.3624628040086140e+01 -9.8769934657412939e-01  1.2127576124598450e+01 -1.2411819006531799e+01 -8.6649558360006185e-01  1.3561269557406231e+01 -1.1201421748724091e+01 -7.4200370914489955e-01  1.4755625196029005e+01 -9.9990736271932903e+00 -6.1937620409652416e-01  1.5727001274086462e+01 -8.8060059615569575e+00 -5.0673323413740168e-01  1.6509626853948479e+01 -7.6166326327365583e+00 -4.1531544259799796e-01  1.7162621264380896e+01 -6.4167370011495377e+00 -3.5750672520977378e-01  1.7777870771160035e+01 -5.1841035393122734e+00 -3.3519925438131370e-01  -3.1341085191754829e+01 -2.2748402829536101e+01 -1.7043552768184798e+00  -2.7292677301019825e+01 -2.2019294296709706e+01 -1.7493668428182780e+00  -2.3269953080449252e+01 -2.1302887358309654e+01 -1.7645637093548996e+00  -1.9346877627087384e+01 -2.0581825419645583e+01 -1.7494909078517953e+00  -1.5572723846020962e+01 -1.9842196962131140e+01 -1.7116331887611023e+00  -1.1976660169764870e+01 -1.9074452191701418e+01 -1.6581953422203568e+00  -8.5735937909530122e+00 -1.8273135915019175e+01 -1.5942893559394253e+00  -5.3704015378172452e+00 -1.7436236942474878e+01 -1.5226902382478895e+00  -2.3709432565246171e+00 -1.6564457631289788e+01 -1.4443451417608879e+00  4.2083497022509087e-01 -1.5660521839310269e+01 -1.3591149492096366e+00  2.9995375418958283e+00 -1.4728549361356000e+01 -1.2664578647329798e+00  5.3582629805704469e+00 -1.3773571423584423e+01 -1.1659616275982918e+00  7.4893520276004502e+00 -1.2801104812978824e+01 -1.0576601672889361e+00  9.3857188424656108e+00 -1.1817088334275313e+01 -9.4219834495013721e-01  1.1041822529455493e+01 -1.0826630536304457e+01 -8.2088265114600778e-01  1.2455943128588711e+01 -9.8352588736839888e+00 -6.9653511890014597e-01  1.3633059366042106e+01 -8.8461434199888522e+00 -5.7417377125600499e-01  1.4589749290985825e+01 -7.8589581726973199e+00 -4.6187867960180190e-01  1.5360910530993452e+01 -6.8686397120048506e+00 -3.7085330498839475e-01  1.6006540573880674e+01 -5.8647876702635999e+00 -3.1333435956168243e-01  1.6618686183351617e+01 -4.8332690284841053e+00 -2.9084876737179960e-01  -3.2002086530624887e+01 -1.8453345099249056e+01 -1.6960800786941108e+00  -2.7961575057410915e+01 -1.7897875952952347e+01 -1.7403996660638881e+00  -2.3944563506274083e+01 -1.7349984533632213e+01 -1.7545929301089644e+00  -2.0026442604087443e+01 -1.6797312649574550e+01 -1.7379078657554989e+00  -1.6258134387177265e+01 -1.6229718168947898e+01 -1.6978157578428079e+00  -1.2670259127721790e+01 -1.5640030556962863e+01 -1.6415514505359101e+00  -9.2787198156847541e+00 -1.5023971799727459e+01 -1.5743044716179173e+00  -6.0908308955530543e+00 -1.4379812952096653e+01 -1.4990017883736750e+00  -3.1103214646504469e+00 -1.3707916990548268e+01 -1.4168266920111350e+00  -3.4047109487832283e-01 -1.3010229460180902e+01 -1.3279355959777164e+00  2.2144208429055561e+00 -1.2289759792691639e+01 -1.2320787496733996e+00  4.5488171399017236e+00 -1.1550125220135529e+01 -1.1290588169044440e+00  6.6561714081298033e+00 -1.0795232935417616e+01 -1.0190275999382401e+00  8.5302697052618832e+00 -1.0029604616469642e+01 -9.0273625459730200e-01  1.0165722186295001e+01 -9.2558955693633163e+00 -7.8109795283995231e-01  1.1561146560908902e+01 -8.4787481636924582e+00 -6.5674749016757283e-01  1.2721850600106967e+01 -7.6997864050210465e+00 -5.3450849870328132e-01  1.3664786540298676e+01 -6.9180205323701776e+00 -4.2235655669426592e-01  1.4425374968687658e+01 -6.1294517604362238e+00 -3.3139568402802844e-01  1.5064032938296014e+01 -5.3270798338824070e+00 -2.7368915704829916e-01  1.5672400835431892e+01 -4.5026992192380018e+00 -2.5051617306579771e-01  -3.2479789930613414e+01 -1.4150132095638648e+01 -1.6933917758938961e+00  -2.8445598674601129e+01 -1.3775050484422119e+01 -1.7367936325289104e+00  -2.4433643564286115e+01 -1.3402583188232434e+01 -1.7497605950609685e+00  -2.0520376448634707e+01 -1.3024480033567459e+01 -1.7313388706846846e+00  -1.6757864320396923e+01 -1.2633934033558003e+01 -1.6890401717742491e+00  -1.3177751693976601e+01 -1.2226094144975249e+01 -1.6301621602206486e+00  -9.7966763822586813e+00 -1.1797992992032677e+01 -1.5599713655480245e+00  -6.6223012489857291e+00 -1.1348347723698321e+01 -1.4815032093366665e+00  -3.6582773348567765e+00 -1.0877287357606114e+01 -1.3960866748336755e+00  -9.0738654273977648e-01 -1.0386013766229615e+01 -1.3040419639506289e+00  1.6269166796515278e+00 -9.8764155882284665e+00 -1.2052672561513196e+00  3.9402282707231633e+00 -9.3506464080048755e+00 -1.0996900903828322e+00  6.0271238120931461e+00 -8.8107027457364513e+00 -9.8738892353817331e-01  7.8820694088761831e+00 -8.2598202881498679e+00 -8.6977975333803337e-01  9.4989392230056655e+00 -7.6983948742894199e+00 -7.4737279456699335e-01  1.0877254174768947e+01 -7.1320193805851817e+00 -6.2278997380815437e-01  1.2023083657976967e+01 -6.5610621250718895e+00 -5.0046557831024352e-01  1.2953754593591956e+01 -5.9843320793734849e+00 -3.8820861712054078e-01  1.3704974200576107e+01 -5.3991287514731807e+00 -2.9700209112701093e-01  1.4337209076518008e+01 -4.8013786948208690e+00 -2.3874211017802616e-01  1.4941421137931153e+01 -4.1872292834473335e+00 -2.1454424062515984e-01  -3.2769210414094943e+01 -9.8424335397397051e+00 -1.6960808635241431e+00  -2.8740306652790355e+01 -9.6524953418913952e+00 -1.7384025422081810e+00  -2.4733084890588010e+01 -9.4602102007332487e+00 -1.7499791296424660e+00  -2.0824877333351075e+01 -9.2610092390489580e+00 -1.7297387572858023e+00  -1.7068543803504230e+01 -9.0511143663121434e+00 -1.6852688824010837e+00  -1.3496389991427385e+01 -8.8278594458137984e+00 -1.6239585425420249e+00  -1.0125509589114545e+01 -8.5895724806596405e+00 -1.5511665165730955e+00  -6.9637564623436106e+00 -8.3354568565243667e+00 -1.4700320248886178e+00  -4.0146658233137149e+00 -8.0654720830952797e+00 -1.3820029023618887e+00  -1.2805824027239150e+00 -7.7801836068753119e+00 -1.2875107914856341e+00  1.2357678181532845e+00 -7.4805719375863085e+00 -1.1865025846709623e+00  3.5308050115647465e+00 -7.1677879589780353e+00 -1.0788257992340893e+00  5.5995320269944999e+00 -6.8430217259255750e+00 -9.6447776795965967e-01  7.4404667770814141e+00 -6.5045445354101492e+00 -8.4469050671297452e-01  9.0414562236262270e+00 -6.1524490392739031e+00 -7.2005362396255779e-01  1.0404269040969117e+01 -5.7947828117590143e+00 -5.9477516946014974e-01  1.1536961694259784e+01 -5.4304240817092682e+00 -4.7210239634344475e-01  1.2457061489898692e+01 -5.0582719352735834e+00 -3.5947680271262134e-01  1.3200210504316685e+01 -4.6770757165939019e+00 -2.6774050649683495e-01  1.3826616214493368e+01 -4.2853492901903945e+00 -2.0864057784415863e-01  1.4426475100019019e+01 -3.8825960408429339e+00 -1.8319056903149281e-01  -3.2866486839549829e+01 -5.5341683549757814e+00 -1.7038846686333695e+00  -2.8842342760184625e+01 -5.5323572830735213e+00 -1.7449589837566704e+00  -2.4839854541428345e+01 -5.5231866081956449e+00 -1.7549621823941968e+00  -2.0937116497280119e+01 -5.5056217495071547e+00 -1.7327776038013496e+00  -1.7187533054916752e+01 -5.4787559990741856e+00 -1.6860801323606158e+00  -1.3623781169559788e+01 -5.4419760610530483e+00 -1.6223587092765042e+00  -1.0263165085299127e+01 -5.3948001939289298e+00 -1.5470675747842857e+00  -7.1135847749108008e+00 -5.3368235307051677e+00 -1.4634456906331690e+00  -4.1784417956611932e+00 -5.2677309429762289e+00 -1.3730575657850823e+00  -1.4597487611023781e+00 -5.1873129415402586e+00 -1.2764739845973176e+00  1.0403369398468478e+00 -5.0954572665463136e+00 -1.1737974407767020e+00  3.3190685949746368e+00 -4.9921298528754647e+00 -1.0650116084649224e+00  5.3733440864048410e+00 -4.8773912298899713e+00 -9.5019384184863365e-01  7.2021668849809997e+00 -4.7518308820430430e+00 -8.3098564338253988e-01  8.7925248408031305e+00 -4.6148654631683090e+00 -6.9988558981079341e-01  1.0141106937077968e+01 -4.4665189840248436e+00 -5.7287402847789293e-01  1.1262588624898418e+01 -4.3080822014881743e+00 -4.4947588056843918e-01  1.2174090675546317e+01 -4.1398366455187938e+00 -3.3620303279774594e-01  1.2910620525986808e+01 -3.9623521186324804e+00 -2.4367545078636613e-01  1.3531853404314935e+01 -3.7766429078422803e+00 -1.8350139076065250e-01  1.4127261814160276e+01 -3.5851016938704290e+00 -1.5663903234983148e-01  -3.2769468681709014e+01 -1.2296772228163082e+00 -1.7167144890353983e+00  -2.8749744417145287e+01 -1.4172366271933334e+00 -1.7563492820291191e+00  -2.4752133050765440e+01 -1.5925097021718384e+00 -1.7645762615025917e+00  -2.0855345299923631e+01 -1.7579921337519486e+00 -1.7402885245099864e+00  -1.7113103326245401e+01 -1.9156395556734931e+00 -1.6912433649737204e+00  -1.3558187217089952e+01 -2.0668236530463537e+00 -1.6250177405217490e+00  -1.0207864161672171e+01 -2.2121546343497855e+00 -1.5471403333452360e+00  -7.0698920952563356e+00 -2.3515275231578050e+00 -1.4609104660621077e+00  -4.1474234449086351e+00 -2.4842938415752984e+00 -1.3679413799213866e+00  -1.4421012152981210e+00 -2.6094550315246519e+00 -1.2688355743252480e+00  1.0443844093117480e+00 -2.7258303165923703e+00 -1.1636927635563323e+00  3.3096928704068875e+00 -2.8322002312325316e+00 -1.0524209152169131e+00  5.3507126864381709e+00 -2.9275423798818467e+00 -9.3499564114764144e-01  7.1633576761738658e+00 -3.0110872585103574e+00 -8.1180591461801865e-01  8.7422131151021212e+00 -3.0864687037155782e+00 -6.8393153490048464e-01  1.0082336263694348e+01 -3.1481687871929354e+00 -5.5664471100526591e-01  1.1197378424116984e+01 -3.1947689693836758e+00 -4.3254334171607484e-01  1.2103419167336805e+01 -3.2291016949536524e+00 -3.1841974600667783e-01  1.2835181024050438e+01 -3.2539461097369520e+00 -2.2486538882117588e-01  1.3452003670759662e+01 -3.2729161227999191e+00 -1.6340682516768829e-01  1.4042869606531250e+01 -3.2912988952615492e+00 -1.3500387869834712e-01  -3.2478057921138713e+01 3.0668389660234538e+00 -1.7347316857826738e+00  -2.8462206689578146e+01 2.6903870624306401e+00 -1.7727363933821498e+00  -2.4469521686478387e+01 2.3309446658302941e+00 -1.7790110907767789e+00  -2.0579132573092259e+01 1.9822977877107628e+00 -1.7524982787017214e+00  -1.6844817454894788e+01 1.6395046008116290e+00 -1.7010380307787214e+00  -1.3299203020064528e+01 1.2992372318851093e+00 -1.6322891145650629e+00  -9.9593251932484268e+00 9.5991738074198218e-01 -1.5518484510647645e+00  -6.8327003370339030e+00 6.2148973710818711e-01 -1.4630707497194329e+00  -3.9222404525563426e+00 2.8503499416627309e-01 -1.3676191129791322e+00  -1.2293398941445206e+00 -4.7624020290181979e-02 -1.2661500717170289e+00  1.2445577151865672e+00 -3.7425732195865780e-01 -1.1588353810753431e+00  3.4973144894189052e+00 -6.9251009350281534e-01 -1.0456968271857465e+00  5.5259177373435477e+00 -1.0001817578818442e+00 -9.2687250437796287e-01  7.3266420250259774e+00 -1.2955411149322844e+00 -8.0295884316396438e-01  8.8956824899864344e+00 -1.5783864553771370e+00 -6.7538764584567124e-01  1.0231888960588027e+01 -1.8434185201087065e+00 -5.4730234510652098e-01  1.1342738478426627e+01 -2.0919803490523550e+00 -4.2177380396725783e-01  1.2244964000342755e+01 -2.3263382183575390e+00 -3.0632208376076508e-01  1.2973109871393849e+01 -2.5508420330088142e+00 -2.1140357538009519e-01  1.3585962725610853e+01 -2.7717483439997026e+00 -1.4840731878641741e-01  1.4172002707603996e+01 -2.9975963573072852e+00 -1.1832878241207956e-01  -3.1993798481469714e+01 7.3517980763181301e+00 -1.7582100870262556e+00  -2.7980851596191179e+01 6.7886645456067862e+00 -1.7944