<?xml version="1.0"?>
<VTKFile type="UnstructuredGrid"  version="0.1"  >
<UnstructuredGrid>
<Piece  NumberOfPoints="9261" NumberOfCells="48000">
<Points>
<DataArray  type="Float64"  NumberOfComponents="3"  format="ascii">0 0 0  0.015 0 0  0.03 0 0  0.045 0 0  0.06 0 0  0.075 0 0  0.09 0 0  0.105 0 0  0.12 0 0  0.135 0 0  0.15 0 0  0.165 0 0  0.18 0 0  0.195 0 0  0.21 0 0  0.225 0 0  0.24 0 0  0.255 0 0  0.27 0 0  0.285 0 0  0.3 0 0  0 0.015 0  0.015 0.015 0  0.03 0.015 0  0.045 0.015 0  0.06 0.015 0  0.075 0.015 0  0.09 0.015 0  0.105 0.015 0  0.12 0.015 0  0.135 0.015 0  0.15 0.015 0  0.165 0.015 0  0.18 0.015 0  0.195 0.015 0  0.21 0.015 0  0.225 0.015 0  0.24 0.015 0  0.255 0.015 0  0.27 0.015 0  0.285 0.015 0  0.3 0.015 0  0 0.03 0  0.015 0.03 0  0.03 0.03 0  0.045 0.03 0  0.06 0.03 0  0.075 0.03 0  0.09 0.03 0  0.105 0.03 0  0.12 0.03 0  0.135 0.03 0  0.15 0.03 0  0.165 0.03 0  0.18 0.03 0  0.195 0.03 0  0.21 0.03 0  0.225 0.03 0  0.24 0.03 0  0.255 0.03 0  0.27 0.03 0  0.285 0.03 0  0.3 0.03 0  0 0.045 0  0.015 0.045 0  0.03 0.045 0  0.045 0.045 0  0.06 0.045 0  0.075 0.045 0  0.09 0.045 0  0.105 0.045 0  0.12 0.045 0  0.135 0.045 0  0.15 0.045 0  0.165 0.045 0  0.18 0.045 0  0.195 0.045 0  0.21 0.045 0  0.225 0.045 0  0.24 0.045 0  0.255 0.045 0  0.27 0.045 0  0.285 0.045 0  0.3 0.045 0  0 0.06 0  0.015 0.06 0  0.03 0.06 0  0.045 0.06 0  0.06 0.06 0  0.075 0.06 0  0.09 0.06 0  0.105 0.06 0  0.12 0.06 0  0.135 0.06 0  0.15 0.06 0  0.165 0.06 0  0.18 0.06 0  0.195 0.06 0  0.21 0.06 0  0.225 0.06 0  0.24 0.06 0  0.255 0.06 0  0.27 0.06 0  0.285 0.06 0  0.3 0.06 0  0 0.075 0  0.015 0.075 0  0.03 0.075 0  0.045 0.075 0  0.06 0.075 0  0.075 0.075 0  0.09 0.075 0  0.105 0.075 0  0.12 0.075 0  0.135 0.075 0  0.15 0.075 0  0.165 0.075 0  0.18 0.075 0  0.195 0.075 0  0.21 0.075 0  0.225 0.075 0  0.24 0.075 0  0.255 0.075 0  0.27 0.075 0  0.285 0.075 0  0.3 0.075 0  0 0.09 0  0.015 0.09 0  0.03 0.09 0  0.045 0.09 0  0.06 0.09 0  0.075 0.09 0  0.09 0.09 0  0.105 0.09 0  0.12 0.09 0  0.135 0.09 0  0.15 0.09 0  0.165 0.09 0  0.18 0.09 0  0.195 0.09 0  0.21 0.09 0  0.225 0.09 0  0.24 0.09 0  0.255 0.09 0  0.27 0.09 0  0.285 0.09 0  0.3 0.09 0  0 0.105 0  0.015 0.105 0  0.03 0.105 0  0.045 0.105 0  0.06 0.105 0  0.075 0.105 0  0.09 0.105 0  0.105 0.105 0  0.12 0.105 0  0.135 0.105 0  0.15 0.105 0  0.165 0.105 0  0.18 0.105 0  0.195 0.105 0  0.21 0.105 0  0.225 0.105 0  0.24 0.105 0  0.255 0.105 0  0.27 0.105 0  0.285 0.105 0  0.3 0.105 0  0 0.12 0  0.015 0.12 0  0.03 0.12 0  0.045 0.12 0  0.06 0.12 0  0.075 0.12 0  0.09 0.12 0  0.105 0.12 0  0.12 0.12 0  0.135 0.12 0  0.15 0.12 0  0.165 0.12 0  0.18 0.12 0  0.195 0.12 0  0.21 0.12 0  0.225 0.12 0  0.24 0.12 0  0.255 0.12 0  0.27 0.12 0  0.285 0.12 0  0.3 0.12 0  0 0.135 0  0.015 0.135 0  0.03 0.135 0  0.045 0.135 0  0.06 0.135 0  0.075 0.135 0  0.09 0.135 0  0.105 0.135 0  0.12 0.135 0  0.135 0.135 0  0.15 0.135 0  0.165 0.135 0  0.18 0.135 0  0.195 0.135 0  0.21 0.135 0  0.225 0.135 0  0.24 0.135 0  0.255 0.135 0  0.27 0.135 0  0.285 0.135 0  0.3 0.135 0  0 0.15 0  0.015 0.15 0  0.03 0.15 0  0.045 0.15 0  0.06 0.15 0  0.075 0.15 0  0.09 0.15 0  0.105 0.15 0  0.12 0.15 0  0.135 0.15 0  0.15 0.15 0  0.165 0.15 0  0.18 0.15 0  0.195 0.15 0  0.21 0.15 0  0.225 0.15 0  0.24 0.15 0  0.255 0.15 0  0.27 0.15 0  0.285 0.15 0  0.3 0.15 0  0 0.165 0  0.015 0.165 0  0.03 0.165 0  0.045 0.165 0  0.06 0.165 0  0.075 0.165 0  0.09 0.165 0  0.105 0.165 0  0.12 0.165 0  0.135 0.165 0  0.15 0.165 0  0.165 0.165 0  0.18 0.165 0  0.195 0.165 0  0.21 0.165 0  0.225 0.165 0  0.24 0.165 0  0.255 0.165 0  0.27 0.165 0  0.285 0.165 0  0.3 0.165 0  0 0.18 0  0.015 0.18 0  0.03 0.18 0  0.045 0.18 0  0.06 0.18 0  0.075 0.18 0  0.09 0.18 0  0.105 0.18 0  0.12 0.18 0  0.135 0.18 0  0.15 0.18 0  0.165 0.18 0  0.18 0.18 0  0.195 0.18 0  0.21 0.18 0  0.225 0.18 0  0.24 0.18 0  0.255 0.18 0  0.27 0.18 0  0.285 0.18 0  0.3 0.18 0  0 0.195 0  0.015 0.195 0  0.03 0.195 0  0.045 0.195 0  0.06 0.195 0  0.075 0.195 0  0.09 0.195 0  0.105 0.195 0  0.12 0.195 0  0.135 0.195 0  0.15 0.195 0  0.165 0.195 0  0.18 0.195 0  0.195 0.195 0  0.21 0.195 0  0.225 0.195 0  0.24 0.195 0  0.255 0.195 0  0.27 0.195 0  0.285 0.195 0  0.3 0.195 0  0 0.21 0  0.015 0.21 0  0.03 0.21 0  0.045 0.21 0  0.06 0.21 0  0.075 0.21 0  0.09 0.21 0  0.105 0.21 0  0.12 0.21 0  0.135 0.21 0  0.15 0.21 0  0.165 0.21 0  0.18 0.21 0  0.195 0.21 0  0.21 0.21 0  0.225 0.21 0  0.24 0.21 0  0.255 0.21 0  0.27 0.21 0  0.285 0.21 0  0.3 0.21 0  0 0.225 0  0.015 0.225 0  0.03 0.225 0  0.045 0.225 0  0.06 0.225 0  0.075 0.225 0  0.09 0.225 0  0.105 0.225 0  0.12 0.225 0  0.135 0.225 0  0.15 0.225 0  0.165 0.225 0  0.18 0.225 0  0.195 0.225 0  0.21 0.225 0  0.225 0.225 0  0.24 0.225 0  0.255 0.225 0  0.27 0.225 0  0.285 0.225 0  0.3 0.225 0  0 0.24 0  0.015 0.24 0  0.03 0.24 0  0.045 0.24 0  0.06 0.24 0  0.075 0.24 0  0.09 0.24 0  0.105 0.24 0  0.12 0.24 0  0.135 0.24 0  0.15 0.24 0  0.165 0.24 0  0.18 0.24 0  0.195 0.24 0  0.21 0.24 0  0.225 0.24 0  0.24 0.24 0  0.255 0.24 0  0.27 0.24 0  0.285 0.24 0  0.3 0.24 0  0 0.255 0  0.015 0.255 0  0.03 0.255 0  0.045 0.255 0  0.06 0.255 0  0.075 0.255 0  0.09 0.255 0  0.105 0.255 0  0.12 0.255 0  0.135 0.255 0  0.15 0.255 0  0.165 0.255 0  0.18 0.255 0  0.195 0.255 0  0.21 0.255 0  0.225 0.255 0  0.24 0.255 0  0.255 0.255 0  0.27 0.255 0  0.285 0.255 0  0.3 0.255 0  0 0.27 0  0.015 0.27 0  0.03 0.27 0  0.045 0.27 0  0.06 0.27 0  0.075 0.27 0  0.09 0.27 0  0.105 0.27 0  0.12 0.27 0  0.135 0.27 0  0.15 0.27 0  0.165 0.27 0  0.18 0.27 0  0.195 0.27 0  0.21 0.27 0  0.225 0.27 0  0.24 0.27 0  0.255 0.27 0  0.27 0.27 0  0.285 0.27 0  0.3 0.27 0  0 0.285 0  0.015 0.285 0  0.03 0.285 0  0.045 0.285 0  0.06 0.285 0  0.075 0.285 0  0.09 0.285 0  0.105 0.285 0  0.12 0.285 0  0.135 0.285 0  0.15 0.285 0  0.165 0.285 0  0.18 0.285 0  0.195 0.285 0  0.21 0.285 0  0.225 0.285 0  0.24 0.285 0  0.255 0.285 0  0.27 0.285 0  0.285 0.285 0  0.3 0.285 0  0 0.3 0  0.015 0.3 0  0.03 0.3 0  0.045 0.3 0  0.06 0.3 0  0.075 0.3 0  0.09 0.3 0  0.105 0.3 0  0.12 0.3 0  0.135 0.3 0  0.15 0.3 0  0.165 0.3 0  0.18 0.3 0  0.195 0.3 0  0.21 0.3 0  0.225 0.3 0  0.24 0.3 0  0.255 0.3 0  0.27 0.3 0  0.285 0.3 0  0.3 0.3 0  0 0 0.00075  0.015 0 0.00075  0.03 0 0.00075  0.045 0 0.00075  0.06 0 0.00075  0.075 0 0.00075  0.09 0 0.00075  0.105 0 0.00075  0.12 0 0.00075  0.135 0 0.00075  0.15 0 0.00075  0.165 0 0.00075  0.18 0 0.00075  0.195 0 0.00075  0.21 0 0.00075  0.225 0 0.00075  0.24 0 0.00075  0.255 0 0.00075  0.27 0 0.00075  0.285 0 0.00075  0.3 0 0.00075  0 0.015 0.00075  0.015 0.015 0.00075  0.03 0.015 0.00075  0.045 0.015 0.00075  0.06 0.015 0.00075  0.075 0.015 0.00075  0.09 0.015 0.00075  0.105 0.015 0.00075  0.12 0.015 0.00075  0.135 0.015 0.00075  0.15 0.015 0.00075  0.165 0.015 0.00075  0.18 0.015 0.00075  0.195 0.015 0.00075  0.21 0.015 0.00075  0.225 0.015 0.00075  0.24 0.015 0.00075  0.255 0.015 0.00075  0.27 0.015 0.00075  0.285 0.015 0.00075  0.3 0.015 0.00075  0 0.03 0.00075  0.015 0.03 0.00075  0.03 0.03 0.00075  0.045 0.03 0.00075  0.06 0.03 0.00075  0.075 0.03 0.00075  0.09 0.03 0.00075  0.105 0.03 0.00075  0.12 0.03 0.00075  0.135 0.03 0.00075  0.15 0.03 0.00075  0.165 0.03 0.00075  0.18 0.03 0.00075  0.195 0.03 0.00075  0.21 0.03 0.00075  0.225 0.03 0.00075  0.24 0.03 0.00075  0.255 0.03 0.00075  0.27 0.03 0.00075  0.285 0.03 0.00075  0.3 0.03 0.00075  0 0.045 0.00075  0.015 0.045 0.00075  0.03 0.045 0.00075  0.045 0.045 0.00075  0.06 0.045 0.00075  0.075 0.045 0.00075  0.09 0.045 0.00075  0.105 0.045 0.00075  0.12 0.045 0.00075  0.135 0.045 0.00075  0.15 0.045 0.00075  0.165 0.045 0.00075  0.18 0.045 0.00075  0.195 0.045 0.00075  0.21 0.045 0.00075  0.225 0.045 0.00075  0.24 0.045 0.00075  0.255 0.045 0.00075  0.27 0.045 0.00075  0.285 0.045 0.00075  0.3 0.045 0.00075  0 0.06 0.00075  0.015 0.06 0.00075  0.03 0.06 0.00075  0.045 0.06 0.00075  0.06 0.06 0.00075  0.075 0.06 0.00075  0.09 0.06 0.00075  0.105 0.06 0.00075  0.12 0.06 0.00075  0.135 0.06 0.00075  0.15 0.06 0.00075  0.165 0.06 0.00075  0.18 0.06 0.00075  0.195 0.06 0.00075  0.21 0.06 0.00075  0.225 0.06 0.00075  0.24 0.06 0.00075  0.255 0.06 0.00075  0.27 0.06 0.00075  0.285 0.06 0.00075  0.3 0.06 0.00075  0 0.075 0.00075  0.015 0.075 0.00075  0.03 0.075 0.00075  0.045 0.075 0.00075  0.06 0.075 0.00075  0.075 0.075 0.00075  0.09 0.075 0.00075  0.105 0.075 0.00075  0.12 0.075 0.00075  0.135 0.075 0.00075  0.15 0.075 0.00075  0.165 0.075 0.00075  0.18 0.075 0.00075  0.195 0.075 0.00075  0.21 0.075 0.00075  0.225 0.075 0.00075  0.24 0.075 0.00075  0.255 0.075 0.00075  0.27 0.075 0.00075  0.285 0.075 0.00075  0.3 0.075 0.00075  0 0.09 0.00075  0.015 0.09 0.00075  0.03 0.09 0.00075  0.045 0.09 0.00075  0.06 0.09 0.00075  0.075 0.09 0.00075  0.09 0.09 0.00075  0.105 0.09 0.00075  0.12 0.09 0.00075  0.135 0.09 0.00075  0.15 0.09 0.00075  0.165 0.09 0.00075  0.18 0.09 0.00075  0.195 0.09 0.00075  0.21 0.09 0.00075  0.225 0.09 0.00075  0.24 0.09 0.00075  0.255 0.09 0.00075  0.27 0.09 0.00075  0.285 0.09 0.00075  0.3 0.09 0.00075  0 0.105 0.00075  0.015 0.105 0.00075  0.03 0.105 0.00075  0.045 0.105 0.00075  0.06 0.105 0.00075  0.075 0.105 0.00075  0.09 0.105 0.00075  0.105 0.105 0.00075  0.12 0.105 0.00075  0.135 0.105 0.00075  0.15 0.105 0.00075  0.165 0.105 0.00075  0.18 0.105 0.00075  0.195 0.105 0.00075  0.21 0.105 0.00075  0.225 0.105 0.00075  0.24 0.105 0.00075  0.255 0.105 0.00075  0.27 0.105 0.00075  0.285 0.105 0.00075  0.3 0.105 0.00075  0 0.12 0.00075  0.015 0.12 0.00075  0.03 0.12 0.00075  0.045 0.12 0.00075  0.06 0.12 0.00075  0.075 0.12 0.00075  0.09 0.12 0.00075  0.105 0.12 0.00075  0.12 0.12 0.00075  0.135 0.12 0.00075  0.15 0.12 0.00075  0.165 0.12 0.00075  0.18 0.12 0.00075  0.195 0.12 0.00075  0.21 0.12 0.00075  0.225 0.12 0.00075  0.24 0.12 0.00075  0.255 0.12 0.00075  0.27 0.12 0.00075  0.285 0.12 0.00075  0.3 0.12 0.00075  0 0.135 0.00075  0.015 0.135 0.00075  0.03 0.135 0.00075  0.045 0.135 0.00075  0.06 0.135 0.00075  0.075 0.135 0.00075  0.09 0.1
[...]
<PointData  Vectors="f_205"> 
<DataArray  type="Float64"  Name="f_205"  NumberOfComponents="3" format="ascii">-2.4071191307276379e+01 -4.9901201432094204e+01 -1.9980424773019638e+00  -1.9689133889143640e+01 -4.8215240843995041e+01 -2.0079225874808908e+00  -1.5416761413072795e+01 -4.6424890864783798e+01 -1.9804501848731455e+00  -1.1316129244380717e+01 -4.4565408464130378e+01 -1.9429085477407035e+00  -7.4001092694430808e+00 -4.2667069125109485e+01 -1.9025549027139115e+00  -3.6659991183797209e+00 -4.0745044579271671e+01 -1.8610441166523226e+00  -1.0512009170350976e-01 -3.8805679696021379e+01 -1.8199527446130024e+00  3.2966069580855368e+00 -3.6848499912983563e+01 -1.7820620460567365e+00  6.5617599501455812e+00 -3.4861347618013724e+01 -1.7506993795356551e+00  9.7209194376680141e+00 -3.2803938583891856e+01 -1.7219515741573874e+00  1.2772435300751804e+01 -3.0592200908528152e+01 -1.6675882070780375e+00  1.5604240144448649e+01 -2.8159915190241207e+01 -1.5569154304105446e+00  1.8098071746829824e+01 -2.5568758807443700e+01 -1.4241339754454170e+00  2.0237038163668259e+01 -2.2911689410777065e+01 -1.2933909944618371e+00  2.2046984702089304e+01 -2.0237649877010455e+01 -1.1660200384679413e+00  2.3551550585627616e+01 -1.7566462168081369e+01 -1.0386196015626450e+00  2.4765923866415328e+01 -1.4909106906931804e+01 -9.0860513008497690e-01  2.5699277300709102e+01 -1.2277153984920959e+01 -7.7421686366142828e-01  2.6356290737825145e+01 -9.6910063516267257e+00 -6.3697284406373467e-01  2.6752921855063974e+01 -7.1942433488667623e+00 -5.1656953113916437e-01  2.7008923291562017e+01 -4.8382851608726556e+00 -4.6394205855498510e-01  -2.5748960390802317e+01 -4.5542014492434447e+01 -1.9706215492188361e+00  -2.1391455763015056e+01 -4.3949832055118975e+01 -1.9900051074228742e+00  -1.7158374298710218e+01 -4.2314987257707806e+01 -1.9635268961359309e+00  -1.3097318716439519e+01 -4.0628852090844504e+01 -1.9229933905174932e+00  -9.2144843618199967e+00 -3.8905184496255302e+01 -1.8793975469003852e+00  -5.5089823713797861e+00 -3.7153471141792835e+01 -1.8348276311930378e+00  -1.9772286266310775e+00 -3.5376343467725320e+01 -1.7903575304421251e+00  1.3874646080016175e+00 -3.3569304963653593e+01 -1.7476438950905380e+00  4.5956499207948163e+00 -3.1718024883568955e+01 -1.7082567301384355e+00  7.6598030409428972e+00 -2.9794250733682688e+01 -1.6689568890914024e+00  1.0574368714979435e+01 -2.7760305542643014e+01 -1.6110153937626923e+00  1.3273287901159343e+01 -2.5594499429215382e+01 -1.5081217003860528e+00  1.5672671853125900e+01 -2.3315055663670584e+01 -1.3777314680876223e+00  1.7758111444678104e+01 -2.0964851788050030e+01 -1.2450468035495876e+00  1.9545225027541225e+01 -1.8581694526380758e+01 -1.1148358785090464e+00  2.1046956947184313e+01 -1.6188994422338617e+01 -9.8455318347764387e-01  2.2272373601423705e+01 -1.3801655464340467e+01 -8.5174429606921986e-01  2.3228307824770784e+01 -1.1432660512825393e+01 -7.1490651076122935e-01  2.3918937652196576e+01 -9.0979115055112043e+00 -5.7589744196304637e-01  2.4355492495308791e+01 -6.8167577309105774e+00 -4.5269662721796439e-01  2.4629202873327976e+01 -4.5819750661717773e+00 -3.8920749477350142e-01  -2.7327824927582057e+01 -4.1161621152082759e+01 -1.9440013265504912e+00  -2.2981827261457806e+01 -3.9690190015296267e+01 -1.9663659968973874e+00  -1.8758682110003324e+01 -3.8205655084417494e+01 -1.9407321628486949e+00  -1.4717057490359105e+01 -3.6690711516717869e+01 -1.8975558992150858e+00  -1.0858347352834400e+01 -3.5143407986171518e+01 -1.8503937424688468e+00  -7.1794723229729556e+00 -3.3565755987786872e+01 -1.8017659958086671e+00  -3.6781061624855407e+00 -3.1957024129362111e+01 -1.7521884091431963e+00  -3.5111150556410142e-01 -3.0311360821209806e+01 -1.7020683796104918e+00  2.8057721106427018e+00 -2.8616631390927438e+01 -1.6511466739409066e+00  5.7954291626060828e+00 -2.6855606000971221e+01 -1.5960348165530902e+00  8.6085191346039274e+00 -2.5014351149480945e+01 -1.5260742213485363e+00  1.1204582459290293e+01 -2.3092511236283368e+01 -1.4276374585185747e+00  1.3529733110229763e+01 -2.1094928912955034e+01 -1.3076956760184653e+00  1.5568431989372206e+01 -1.9036672702737459e+01 -1.1807218098948082e+00  1.7329021177856905e+01 -1.6939317813010820e+01 -1.0521035441812616e+00  1.8818593847049915e+01 -1.4823214134959773e+01 -9.2137181497998921e-01  2.0041585568619912e+01 -1.2704174585644962e+01 -7.8718249690386288e-01  2.1000905265467679e+01 -1.0594895925782668e+01 -6.4868539439945738e-01  2.1696799897204755e+01 -8.5063426111417986e+00 -5.0853841535758360e-01  2.2137274107091930e+01 -6.4439357660471979e+00 -3.8589264530156742e-01  2.2415074299327731e+01 -4.3864030605023459e+00 -3.2414570660186609e-01  -2.8762895836953451e+01 -3.6757604090613775e+01 -1.9209954434915262e+00  -2.4424566963405500e+01 -3.5432320048369192e+01 -1.9440953236197536e+00  -2.0205812264793089e+01 -3.4105654809261530e+01 -1.9180093531598421e+00  -1.6173575889356705e+01 -3.2760985198995947e+01 -1.8728157729753208e+00  -1.2330968714355119e+01 -3.1390623537551736e+01 -1.8222984741356987e+00  -8.6738533028407101e+00 -2.9991114941225256e+01 -1.7692800057196232e+00  -5.1999055603619766e+00 -2.8559154536738539e+01 -1.7140269035260307e+00  -1.9076430927074437e+00 -2.7089105294506979e+01 -1.6562533170905849e+00  1.2036877914566952e+00 -2.5572536128264851e+01 -1.5949164189187965e+00  4.1320537179815213e+00 -2.4000400155516282e+01 -1.5271955968403028e+00  6.8669665658349661e+00 -2.2368673786453122e+01 -1.4474853721397714e+00  9.3826247170083334e+00 -2.0680899066403359e+01 -1.3500967545228664e+00  1.1646808781290316e+01 -1.8938217926526352e+01 -1.2378301293928990e+00  1.3645375159391762e+01 -1.7146854150938356e+01 -1.1170557539706394e+00  1.5379224690016954e+01 -1.5319576939543859e+01 -9.9120006963488005e-01  1.6851254334304599e+01 -1.3470851031136045e+01 -8.6106939980989172e-01  1.8063128120169292e+01 -1.1613703253341537e+01 -7.2643396891291867e-01  1.9015087808073293e+01 -9.7586102716103778e+00 -5.8713480520141004e-01  1.9705087340472065e+01 -7.9125594847706138e+00 -4.4646775810335054e-01  2.0140671618615990e+01 -6.0749913699162397e+00 -3.2428459744798349e-01  2.0417682711924822e+01 -4.2270796200264451e+00 -2.6364591585380048e-01  -3.0031778544118033e+01 -3.2335542936101881e+01 -1.9023413679771397e+00  -2.5699514617857268e+01 -3.1174286392391537e+01 -1.9250548557487106e+00  -2.1484454362039365e+01 -3.0014941900834732e+01 -1.8976529465547989e+00  -1.7458689906860904e+01 -2.8844088370434939e+01 -1.8502191151066996e+00  -1.3627829407698099e+01 -2.7653004462820174e+01 -1.7964960686698317e+00  -9.9883997251816456e+00 -2.6435993959550437e+01 -1.7392613799502659e+00  -6.5383571134740084e+00 -2.5188442084800581e+01 -1.6786892570797638e+00  -3.2771238950443200e+00 -2.3905381016953346e+01 -1.6142946891542096e+00  -2.0571760761367122e-01 -2.2581347967176278e+01 -1.5449931350433657e+00  2.6719119196184242e+00 -2.1211960411774957e+01 -1.4688008592611816e+00  5.3462070892919993e+00 -1.9796602539023123e+01 -1.3828321536077470e+00  7.8000228072003575e+00 -1.8338051428194845e+01 -1.2847942890035378e+00  1.0013652111705333e+01 -1.6836768683483889e+01 -1.1758258650106765e+00  1.1975686890007081e+01 -1.5296462989612003e+01 -1.0585413044680192e+00  1.3682961772205461e+01 -1.3725527595810609e+01 -9.3475148173519573e-01  1.5135064979636883e+01 -1.2133882282877336e+01 -8.0536544967479862e-01  1.6331712401241532e+01 -1.0530992109785448e+01 -6.7068203428775452e-01  1.7271663479225900e+01 -8.9245378258931360e+00 -5.3102402693767425e-01  1.7952054068826932e+01 -7.3187850104466756e+00 -3.9011292787678092e-01  1.8381069480319315e+01 -5.7115622350198034e+00 -2.6805115828051151e-01  1.8656261275461098e+01 -4.0901952737640741e+00 -2.0742003472200662e-01  -3.1122072405675436e+01 -2.7901288714663650e+01 -1.8883332920840876e+00  -2.6794825509857077e+01 -2.6916040219308524e+01 -1.9100300135671591e+00  -2.2583648417746293e+01 -2.5932555105879771e+01 -1.8807682312300533e+00  -1.8563797405788826e+01 -2.4940875429756566e+01 -1.8308269762038341e+00  -1.4742848604846444e+01 -2.3933077964774405e+01 -1.7739558171486833e+00  -1.1118441556291597e+01 -2.2903115998928751e+01 -1.7128401932079318e+00  -7.6891789908737138e+00 -2.1846147034252215e+01 -1.6476057650792477e+00  -4.4551101269746223e+00 -2.0757925053837930e+01 -1.5777910342941628e+00  -1.4180044267654266e+00 -1.9634822590491687e+01 -1.5025337566596062e+00  1.4178529261149513e+00 -1.8474664984202835e+01 -1.4205492815492946e+00  4.0445265298661619e+00 -1.7277689469500320e+01 -1.3303244926451101e+00  6.4501675709260731e+00 -1.6045604458292171e+01 -1.2308641734944503e+00  8.6219210030429334e+00 -1.4779015728111286e+01 -1.1226053333765404e+00  1.0550831474686472e+01 -1.3480731331921652e+01 -1.0066230699057945e+00  1.2232301898077846e+01 -1.2156550649979572e+01 -8.8383730183664866e-01  1.3663968973620234e+01 -1.0813338114393121e+01 -7.5490672084593657e-01  1.4844162853365795e+01 -9.4577352644969093e+00 -6.2022814115567315e-01  1.5770837056452111e+01 -8.0950826333842585e+00 -4.8036115050243217e-01  1.6441036049455203e+01 -6.7280147347065329e+00 -3.3925724990784667e-01  1.6863727395189592e+01 -5.3546202421539606e+00 -2.1700810337865947e-01  1.7136874011095887e+01 -3.9677675696779908e+00 -1.5565166446809101e-01  -3.2026263118807904e+01 -2.3459401034024069e+01 -1.8790739077139098e+00  -2.7703136255190834e+01 -2.2658226935326624e+01 -1.8993973972220781e+00  -2.3495935648270052e+01 -2.1857607349850106e+01 -1.8679698475874895e+00  -1.9481964678745907e+01 -2.1050664911587585e+01 -1.8153860507088995e+00  -1.5670108484597886e+01 -2.0230754159816669e+01 -1.7554587581401884e+00  -1.2058991456093393e+01 -1.9392293153852265e+01 -1.6908110629323998e+00  -8.6479033002053889e+00 -1.8530789554633422e+01 -1.6215523704635415e+00  -5.4373537031342307e+00 -1.7642666657898019e+01 -1.5473066336356425e+00  -2.4293427458941377e+00 -1.6725324318480901e+01 -1.4674553044979137e+00  3.7216939441433622e-01 -1.5777492621478816e+01 -1.3811918001495409e+00  2.9608314834669325e+00 -1.4799426272249336e+01 -1.2876895769813270e+00  5.3281360600257184e+00 -1.3792138865639400e+01 -1.1864577912305532e+00  7.4651150923256617e+00 -1.2756386340195833e+01 -1.0776379652763379e+00  9.3646792321807357e+00 -1.1694421526386151e+01 -9.6167569795424268e-01  1.1022054052719295e+01 -1.0610342666271123e+01 -8.3903434447830749e-01  1.2434007849561855e+01 -9.5089758128870603e+00 -7.1013000593013376e-01  1.3598078725582830e+01 -8.3950034295397344e+00 -5.7530358839094664e-01  1.4511822379846450e+01 -7.2721562174281935e+00 -4.3518662613492776e-01  1.5172439778616756e+01 -6.1422396662710961e+00 -2.9381229396860647e-01  1.5589482368928939e+01 -5.0041939094603780e+00 -1.7112621698758648e-01  1.5860533490648599e+01 -3.8548734520042349e+00 -1.0862528703562420e-01  -3.2739680594000333e+01 -1.9013227034577422e+01 -1.8746016836491317e+00  -2.8419618989915062e+01 -1.8401622795811807e+01 -1.8933365429890450e+00  -2.4216102843425773e+01 -1.7789340216400298e+01 -1.8595955427429469e+00  -2.0207855966728793e+01 -1.7172198232687169e+01 -1.8043804048754148e+00  -1.6404511495705027e+01 -1.6544637731668075e+01 -1.7415538768159999e+00  -1.2805382435885367e+01 -1.5901743462031558e+01 -1.6737011020888575e+00  -9.4102931779600656e+00 -1.5239590468736477e+01 -1.6009415673991625e+00  -6.2200476116882353e+00 -1.4555191907612254e+01 -1.5229912387649145e+00  -3.2366248559115527e+00 -1.3846525033643964e+01 -1.4394255927475303e+00  -4.6346131597968288e-01 -1.3112638612775646e+01 -1.3497408037604439e+00  2.0944078184890178e+00 -1.2353589354359904e+01 -1.2534634641764981e+00  4.4306569355163967e+00 -1.1569954576598212e+01 -1.1503180584006516e+00  6.5386709079463374e+00 -1.0762471004537035e+01 -1.0403255859819192e+00  8.4127374590867152e+00 -9.9329098989524418e+00 -9.2366541032789728e-01  1.0048386766277355e+01 -9.0842019226436452e+00 -8.0056809804331130e-01  1.1442157707837699e+01 -8.2197963149729780e+00 -6.7128345687477720e-01  1.2591263207969567e+01 -7.3430729421489778e+00 -5.3607117034479479e-01  1.3493126624625329e+01 -6.4567703248835677e+00 -3.9555611221574671e-01  1.4145151292705421e+01 -5.5623792382447839e+00 -2.5376446775330819e-01  1.4557232405032870e+01 -4.6597489543498645e+00 -1.3043645835615161e-01  1.4826189639795050e+01 -3.7483442373806968e+00 -6.6558170612194587e-02  -3.3260157221160817e+01 -1.4565273176574712e+01 -1.8753561960999261e+00  -2.8940987794573161e+01 -1.4146935727676343e+01 -1.8921293491240661e+00  -2.4740158190470122e+01 -1.3727041933957773e+01 -1.8558796488297382e+00  -2.0737187799814681e+01 -1.3304052414640521e+01 -1.7981417782598328e+00  -1.6941761489702596e+01 -1.2872828881366422e+01 -1.7326220881821324e+00  -1.3353521229935179e+01 -1.2429029081415777e+01 -1.6618542694967540e+00  -9.9726014719766347e+00 -1.1969342021046870e+01 -1.5859937640729440e+00  -6.7999342936675795e+00 -1.1491298537386047e+01 -1.5048459141319768e+00  -3.8373512848693165e+00 -1.0993228273327894e+01 -1.4181291860560954e+00  -1.0877537574485989e+00 -1.0474264526426817e+01 -1.3255283224663128e+00  1.4448544839133362e+00 -9.9342384754922026e+00 -1.2267603786015044e+00  3.7556251255347304e+00 -9.3734080640647104e+00 -1.1216544563232798e+00  5.8394650872414999e+00 -8.7923502496828583e+00 -1.0101859274228944e+00  7.6916874416738326e+00 -8.1923852983272738e+00 -8.9241811898702961e-01  9.3082692401931073e+00 -7.5756079045710223e+00 -7.6846233420839316e-01  1.0685835266837026e+01 -6.9445209977895566e+00 -6.3846563910070686e-01  1.1821554926146238e+01 -6.3016532784070947e+00 -5.0261891023069438e-01  1.2712869860572397e+01 -5.6491803832536451e+00 -3.6151276111482178e-01  1.3357362728418508e+01 -4.9885728016976669e+00 -2.1912566187425811e-01  1.3765090163569022e+01 -4.3204802162566054e+00 -9.4977914267002680e-02  1.4031979822355384e+01 -3.6460319591848811e+00 -2.9586693248365128e-02  -3.3589230493193831e+01 -1.0115650719414580e+01 -1.8841114528894942e+00  -2.9264456204675156e+01 -9.8937057810414686e+00 -1.8973836470921812e+00  -2.5064024150261325e+01 -9.6697047066849411e+00 -1.8573957437879474e+00  -2.1065993517828076e+01 -9.4447318362843262e+00 -1.7970477273787986e+00  -1.7278098336461522e+01 -9.2132880890597804e+00 -1.7289880382379585e+00  -1.3699891544666624e+01 -8.9715459549032559e+00 -1.6555197723296293e+00  -1.0331646525566393e+01 -8.7168389019998926e+00 -1.5768377763709429e+00  -7.1743096088792848e+00 -8.4471667440526179e+00 -1.4928305004487628e+00  -4.2295120830476316e+00 -8.1611005639527789e+00 -1.4033200798924614e+00  -1.4996754219814747e+00 -7.8577702479752798e+00 -1.3081095421884554e+00  1.0119898740467967e+00 -7.5367947478633903e+00 -1.2070238719514741e+00  3.3016713514123270e+00 -7.1981545867765826e+00 -1.0999495886275406e+00  5.3653192818776301e+00 -6.8421813390871451e+00 -9.8684782597166198e-01  7.1990248546878339e+00 -6.4697687591151860e+00 -8.6773049573841188e-01  8.7992169919476169e+00 -6.0823792575048534e+00 -7.4264691699784802e-01  1.0162731573798647e+01 -5.6818447160909740e+00 -6.1168203926845655e-01  1.1286824974367820e+01 -5.2701379670275799e+00 -4.7497529522910636e-01  1.2169014607273281e+01 -4.8491452105429413e+00 -3.3307847691058362e-01  1.2807012310328780e+01 -4.4204766679446870e+00 -1.8991041281521612e-01  1.3210916531207086e+01 -3.9854676717974438e+00 -6.4781813832874277e-02  1.3475775609790665e+01 -3.5463598789868236e+00 2.2102657389441423e-03  -3.3715259038074606e+01 -5.6421582162632600e+00 -1.9023228494926414e+00  -2.9384739940578939e+01 -5.6308839797776802e+00 -1.9137744568408970e+00  -2.5181911875167998e+01 -5.6143073816617282e+00 -1.8655628726363123e+00  -2.1190327087224244e+01 -5.5924103527920774e+00 -1.8016996080133307e+00  -1.7410340333435748e+01 -5.5639170345839792e+00 -1.7309936227471814e+00  -1.3841638970348788e+01 -5.5267221808788465e+00 -1.6549016746879315e+00  -1.0484864320917058e+01 -5.4790532283136928e+00 -1.5735577764214830e+00  -7.3410085056852141e+00 -5.4193810759151173e+00 -1.4868993522482155e+00  -4.4115118912698348e+00 -5.3464625980770446e+00 -1.3948156661025153e+00  -1.6983900285496449e+00 -5.2593879172419573e+00 -1.2971821581501948e+00  7.9575736025469035e-01 -5.1575747657435977e+00 -1.1938863729421199e+00  3.0678696680915802e+00 -5.0407349448271832e+00 -1.0848485788861861e+00  5.1146492769999456e+00 -4.9089060840963237e+00 -9.7002762436202927e-01  6.9327915139751246e+00 -4.7625722865236417e+00 -8.4941204939785742e-01  8.5191331660169443e+00 -4.6026809692747834e+00 -7.2301745385687699e-01  9.8707472861880579e+00 -4.4305572433705143e+00 -5.9088980516879863e-01  1.0985009858133465e+01 -4.2477970983529634e+00 -4.5313046813330660e-01  1.1859504017347982e+01 -4.0561607368911670e+00 -3.1025581436690103e-01  1.2492000677089482e+01 -3.8574902855259410e+00 -1.6612702073032320e-01  1.2892555736260569e+01 -3.6537486831092352e+00 -3.9867774729147966e-02  1.3155415446461229e+01 -3.4480410558937131e+00 2.8790839010125694e-02  -3.3612217082792952e+01 -1.1724940801924815e+00 -1.9155475463970046e+00  -2.9293120933996512e+01 -1.3682344365890704e+00 -1.9243076014938310e+00  -2.5097069649833283e+01 -1.5605696857860425e+00 -1.8778810298681139e+00  -2.1111041453409708e+01 -1.7459808175413616e+00 -1.8120101670611544e+00  -1.7337385129256404e+01 -1.9229109436825702e+00 -1.7388059248410199e+00  -1.3776956383961005e+01 -2.0922019476430913e+00 -1.6601255578946663e+00  -1.0430362464759686e+01 -2.2532287541908205e+00 -1.5761973061160524e+00  -7.2983595418169820e+00 -2.4049148449854139e+00 -1.4870041404425296e+00  -4.3820990833163176e+00 -2.5461481920427862e+00 -1.3924766604758290e+00  -1.6832198559227645e+00 -2.6759470056291050e+00 -1.2925319678040856e+00  7.9616520440585625e-01 -2.7935245694110216e+00 -1.1870925821849139e+00  3.0535628507729924e+00 -2.8983174810225480e+00 -1.0760980036093268e+00  5.0862442960228353e+00 -2.9900392140101073e+00 -9.5950771567195081e-01  6.8913890194637180e+00 -3.0687683321678909e+00 -8.3729836796126489e-01  8.4661903083750598e+00 -3.1349911247870796e+00 -7.0946505939678839e-01  9.8079426068836320e+00 -3.1896040859557546e+00 -5.7602672361465745e-01  1.0914121618098349e+01 -3.2339132830187913e+00 -4.3705472836848286e-01  1.1782321243525020e+01 -3.2696367838610367e+00 -2.9303433200487211e-01  1.2410277348640737e+01 -3.2989103380482550e+00 -1.4777591975325069e-01  1.2807920711001106e+01 -3.3243425032069833e+00 -2.0243624506196038e-02  1.3068785094790172e+01 -3.3498881566026180e+00 5.0138530860934095e-02  -3.3304977073028489e+01 3.2809007888042157e+00 -1.9374700040133814e+00  -2.8993759649189126e+01 2.8781544029110568e+00 -1.9448576055156901e+00  -2.4804907230232963e+01 2.4816760940353872e+00 -1.8975817566170887e+00  -2.0822621052547991e+01 2.0933625268503726e+00 -1.8292235374996164e+00  -1.7055476939088564e+01 1.7109565501448243e+00 -1.7529073009906546e+00  -1.3503304200359629e+01 1.3340994441273788e+00 -1.6713708059359378e+00  -1.0166261134990648e+01 9.6312162589388506e-01 -1.5847936818248487e+00  -7.0449176161913325e+00 5.9892020026656911e-01 -1.4930946947963186e+00  -4.1402356230604891e+00 2.4260128150130864e-01 -1.3961877377873642e+00  -1.4535871988856954e+00 -1.0472507253099803e-01 -1.2939963417004670e+00  1.0132726762526374e+00 -4.4204932096502558e-01 -1.1864548386505667e+00  3.2582779786515736e+00 -7.6852114204221611e-01 -1.0735099189851802e+00  5.2791457672926523e+00 -1.0835093531528242e+00 -9.5512002528749673e-01  7.0734615309835140e+00 -1.3866780060580264e+00 -8.3125361737083481e-01  8.6387397273529203e+00 -1.6780564525447375e+00 -7.0189080209074495e-01  9.9724778718384215e+00 -1.9581168094967012e+00 -5.6702880110210241e-01  1.1072215946192541e+01 -2.2278779842058762e+00 -4.2671246898403092e-01  1.1935478305659334e+01 -2.4890278761664457e+00 -2.8139802123143409e-01  1.2559839917741835e+01 -2.7440356169941045e+00 -1.3485160326513576e-01  1.2954990627410877e+01 -2.9962481613501808e+00 -5.9059818000209950e-03  1.3213809402395254e+01 -3.2506595057558738e+00 6.6257955407724251e-02  -3.2796486062943941e+01 7.7278336113308690e+00 -1.9663470755428343e+00  -2.8488318823854051e+01 7.1204883665929417e+00 -1.97237758