<?xml version="1.0"?>
<VTKFile type="UnstructuredGrid"  version="0.1"  >
<UnstructuredGrid>
<Piece  NumberOfPoints="9261" NumberOfCells="48000">
<Points>
<DataArray  type="Float64"  NumberOfComponents="3"  format="ascii">0 0 0  0.015 0 0  0.03 0 0  0.045 0 0  0.06 0 0  0.075 0 0  0.09 0 0  0.105 0 0  0.12 0 0  0.135 0 0  0.15 0 0  0.165 0 0  0.18 0 0  0.195 0 0  0.21 0 0  0.225 0 0  0.24 0 0  0.255 0 0  0.27 0 0  0.285 0 0  0.3 0 0  0 0.015 0  0.015 0.015 0  0.03 0.015 0  0.045 0.015 0  0.06 0.015 0  0.075 0.015 0  0.09 0.015 0  0.105 0.015 0  0.12 0.015 0  0.135 0.015 0  0.15 0.015 0  0.165 0.015 0  0.18 0.015 0  0.195 0.015 0  0.21 0.015 0  0.225 0.015 0  0.24 0.015 0  0.255 0.015 0  0.27 0.015 0  0.285 0.015 0  0.3 0.015 0  0 0.03 0  0.015 0.03 0  0.03 0.03 0  0.045 0.03 0  0.06 0.03 0  0.075 0.03 0  0.09 0.03 0  0.105 0.03 0  0.12 0.03 0  0.135 0.03 0  0.15 0.03 0  0.165 0.03 0  0.18 0.03 0  0.195 0.03 0  0.21 0.03 0  0.225 0.03 0  0.24 0.03 0  0.255 0.03 0  0.27 0.03 0  0.285 0.03 0  0.3 0.03 0  0 0.045 0  0.015 0.045 0  0.03 0.045 0  0.045 0.045 0  0.06 0.045 0  0.075 0.045 0  0.09 0.045 0  0.105 0.045 0  0.12 0.045 0  0.135 0.045 0  0.15 0.045 0  0.165 0.045 0  0.18 0.045 0  0.195 0.045 0  0.21 0.045 0  0.225 0.045 0  0.24 0.045 0  0.255 0.045 0  0.27 0.045 0  0.285 0.045 0  0.3 0.045 0  0 0.06 0  0.015 0.06 0  0.03 0.06 0  0.045 0.06 0  0.06 0.06 0  0.075 0.06 0  0.09 0.06 0  0.105 0.06 0  0.12 0.06 0  0.135 0.06 0  0.15 0.06 0  0.165 0.06 0  0.18 0.06 0  0.195 0.06 0  0.21 0.06 0  0.225 0.06 0  0.24 0.06 0  0.255 0.06 0  0.27 0.06 0  0.285 0.06 0  0.3 0.06 0  0 0.075 0  0.015 0.075 0  0.03 0.075 0  0.045 0.075 0  0.06 0.075 0  0.075 0.075 0  0.09 0.075 0  0.105 0.075 0  0.12 0.075 0  0.135 0.075 0  0.15 0.075 0  0.165 0.075 0  0.18 0.075 0  0.195 0.075 0  0.21 0.075 0  0.225 0.075 0  0.24 0.075 0  0.255 0.075 0  0.27 0.075 0  0.285 0.075 0  0.3 0.075 0  0 0.09 0  0.015 0.09 0  0.03 0.09 0  0.045 0.09 0  0.06 0.09 0  0.075 0.09 0  0.09 0.09 0  0.105 0.09 0  0.12 0.09 0  0.135 0.09 0  0.15 0.09 0  0.165 0.09 0  0.18 0.09 0  0.195 0.09 0  0.21 0.09 0  0.225 0.09 0  0.24 0.09 0  0.255 0.09 0  0.27 0.09 0  0.285 0.09 0  0.3 0.09 0  0 0.105 0  0.015 0.105 0  0.03 0.105 0  0.045 0.105 0  0.06 0.105 0  0.075 0.105 0  0.09 0.105 0  0.105 0.105 0  0.12 0.105 0  0.135 0.105 0  0.15 0.105 0  0.165 0.105 0  0.18 0.105 0  0.195 0.105 0  0.21 0.105 0  0.225 0.105 0  0.24 0.105 0  0.255 0.105 0  0.27 0.105 0  0.285 0.105 0  0.3 0.105 0  0 0.12 0  0.015 0.12 0  0.03 0.12 0  0.045 0.12 0  0.06 0.12 0  0.075 0.12 0  0.09 0.12 0  0.105 0.12 0  0.12 0.12 0  0.135 0.12 0  0.15 0.12 0  0.165 0.12 0  0.18 0.12 0  0.195 0.12 0  0.21 0.12 0  0.225 0.12 0  0.24 0.12 0  0.255 0.12 0  0.27 0.12 0  0.285 0.12 0  0.3 0.12 0  0 0.135 0  0.015 0.135 0  0.03 0.135 0  0.045 0.135 0  0.06 0.135 0  0.075 0.135 0  0.09 0.135 0  0.105 0.135 0  0.12 0.135 0  0.135 0.135 0  0.15 0.135 0  0.165 0.135 0  0.18 0.135 0  0.195 0.135 0  0.21 0.135 0  0.225 0.135 0  0.24 0.135 0  0.255 0.135 0  0.27 0.135 0  0.285 0.135 0  0.3 0.135 0  0 0.15 0  0.015 0.15 0  0.03 0.15 0  0.045 0.15 0  0.06 0.15 0  0.075 0.15 0  0.09 0.15 0  0.105 0.15 0  0.12 0.15 0  0.135 0.15 0  0.15 0.15 0  0.165 0.15 0  0.18 0.15 0  0.195 0.15 0  0.21 0.15 0  0.225 0.15 0  0.24 0.15 0  0.255 0.15 0  0.27 0.15 0  0.285 0.15 0  0.3 0.15 0  0 0.165 0  0.015 0.165 0  0.03 0.165 0  0.045 0.165 0  0.06 0.165 0  0.075 0.165 0  0.09 0.165 0  0.105 0.165 0  0.12 0.165 0  0.135 0.165 0  0.15 0.165 0  0.165 0.165 0  0.18 0.165 0  0.195 0.165 0  0.21 0.165 0  0.225 0.165 0  0.24 0.165 0  0.255 0.165 0  0.27 0.165 0  0.285 0.165 0  0.3 0.165 0  0 0.18 0  0.015 0.18 0  0.03 0.18 0  0.045 0.18 0  0.06 0.18 0  0.075 0.18 0  0.09 0.18 0  0.105 0.18 0  0.12 0.18 0  0.135 0.18 0  0.15 0.18 0  0.165 0.18 0  0.18 0.18 0  0.195 0.18 0  0.21 0.18 0  0.225 0.18 0  0.24 0.18 0  0.255 0.18 0  0.27 0.18 0  0.285 0.18 0  0.3 0.18 0  0 0.195 0  0.015 0.195 0  0.03 0.195 0  0.045 0.195 0  0.06 0.195 0  0.075 0.195 0  0.09 0.195 0  0.105 0.195 0  0.12 0.195 0  0.135 0.195 0  0.15 0.195 0  0.165 0.195 0  0.18 0.195 0  0.195 0.195 0  0.21 0.195 0  0.225 0.195 0  0.24 0.195 0  0.255 0.195 0  0.27 0.195 0  0.285 0.195 0  0.3 0.195 0  0 0.21 0  0.015 0.21 0  0.03 0.21 0  0.045 0.21 0  0.06 0.21 0  0.075 0.21 0  0.09 0.21 0  0.105 0.21 0  0.12 0.21 0  0.135 0.21 0  0.15 0.21 0  0.165 0.21 0  0.18 0.21 0  0.195 0.21 0  0.21 0.21 0  0.225 0.21 0  0.24 0.21 0  0.255 0.21 0  0.27 0.21 0  0.285 0.21 0  0.3 0.21 0  0 0.225 0  0.015 0.225 0  0.03 0.225 0  0.045 0.225 0  0.06 0.225 0  0.075 0.225 0  0.09 0.225 0  0.105 0.225 0  0.12 0.225 0  0.135 0.225 0  0.15 0.225 0  0.165 0.225 0  0.18 0.225 0  0.195 0.225 0  0.21 0.225 0  0.225 0.225 0  0.24 0.225 0  0.255 0.225 0  0.27 0.225 0  0.285 0.225 0  0.3 0.225 0  0 0.24 0  0.015 0.24 0  0.03 0.24 0  0.045 0.24 0  0.06 0.24 0  0.075 0.24 0  0.09 0.24 0  0.105 0.24 0  0.12 0.24 0  0.135 0.24 0  0.15 0.24 0  0.165 0.24 0  0.18 0.24 0  0.195 0.24 0  0.21 0.24 0  0.225 0.24 0  0.24 0.24 0  0.255 0.24 0  0.27 0.24 0  0.285 0.24 0  0.3 0.24 0  0 0.255 0  0.015 0.255 0  0.03 0.255 0  0.045 0.255 0  0.06 0.255 0  0.075 0.255 0  0.09 0.255 0  0.105 0.255 0  0.12 0.255 0  0.135 0.255 0  0.15 0.255 0  0.165 0.255 0  0.18 0.255 0  0.195 0.255 0  0.21 0.255 0  0.225 0.255 0  0.24 0.255 0  0.255 0.255 0  0.27 0.255 0  0.285 0.255 0  0.3 0.255 0  0 0.27 0  0.015 0.27 0  0.03 0.27 0  0.045 0.27 0  0.06 0.27 0  0.075 0.27 0  0.09 0.27 0  0.105 0.27 0  0.12 0.27 0  0.135 0.27 0  0.15 0.27 0  0.165 0.27 0  0.18 0.27 0  0.195 0.27 0  0.21 0.27 0  0.225 0.27 0  0.24 0.27 0  0.255 0.27 0  0.27 0.27 0  0.285 0.27 0  0.3 0.27 0  0 0.285 0  0.015 0.285 0  0.03 0.285 0  0.045 0.285 0  0.06 0.285 0  0.075 0.285 0  0.09 0.285 0  0.105 0.285 0  0.12 0.285 0  0.135 0.285 0  0.15 0.285 0  0.165 0.285 0  0.18 0.285 0  0.195 0.285 0  0.21 0.285 0  0.225 0.285 0  0.24 0.285 0  0.255 0.285 0  0.27 0.285 0  0.285 0.285 0  0.3 0.285 0  0 0.3 0  0.015 0.3 0  0.03 0.3 0  0.045 0.3 0  0.06 0.3 0  0.075 0.3 0  0.09 0.3 0  0.105 0.3 0  0.12 0.3 0  0.135 0.3 0  0.15 0.3 0  0.165 0.3 0  0.18 0.3 0  0.195 0.3 0  0.21 0.3 0  0.225 0.3 0  0.24 0.3 0  0.255 0.3 0  0.27 0.3 0  0.285 0.3 0  0.3 0.3 0  0 0 0.00075  0.015 0 0.00075  0.03 0 0.00075  0.045 0 0.00075  0.06 0 0.00075  0.075 0 0.00075  0.09 0 0.00075  0.105 0 0.00075  0.12 0 0.00075  0.135 0 0.00075  0.15 0 0.00075  0.165 0 0.00075  0.18 0 0.00075  0.195 0 0.00075  0.21 0 0.00075  0.225 0 0.00075  0.24 0 0.00075  0.255 0 0.00075  0.27 0 0.00075  0.285 0 0.00075  0.3 0 0.00075  0 0.015 0.00075  0.015 0.015 0.00075  0.03 0.015 0.00075  0.045 0.015 0.00075  0.06 0.015 0.00075  0.075 0.015 0.00075  0.09 0.015 0.00075  0.105 0.015 0.00075  0.12 0.015 0.00075  0.135 0.015 0.00075  0.15 0.015 0.00075  0.165 0.015 0.00075  0.18 0.015 0.00075  0.195 0.015 0.00075  0.21 0.015 0.00075  0.225 0.015 0.00075  0.24 0.015 0.00075  0.255 0.015 0.00075  0.27 0.015 0.00075  0.285 0.015 0.00075  0.3 0.015 0.00075  0 0.03 0.00075  0.015 0.03 0.00075  0.03 0.03 0.00075  0.045 0.03 0.00075  0.06 0.03 0.00075  0.075 0.03 0.00075  0.09 0.03 0.00075  0.105 0.03 0.00075  0.12 0.03 0.00075  0.135 0.03 0.00075  0.15 0.03 0.00075  0.165 0.03 0.00075  0.18 0.03 0.00075  0.195 0.03 0.00075  0.21 0.03 0.00075  0.225 0.03 0.00075  0.24 0.03 0.00075  0.255 0.03 0.00075  0.27 0.03 0.00075  0.285 0.03 0.00075  0.3 0.03 0.00075  0 0.045 0.00075  0.015 0.045 0.00075  0.03 0.045 0.00075  0.045 0.045 0.00075  0.06 0.045 0.00075  0.075 0.045 0.00075  0.09 0.045 0.00075  0.105 0.045 0.00075  0.12 0.045 0.00075  0.135 0.045 0.00075  0.15 0.045 0.00075  0.165 0.045 0.00075  0.18 0.045 0.00075  0.195 0.045 0.00075  0.21 0.045 0.00075  0.225 0.045 0.00075  0.24 0.045 0.00075  0.255 0.045 0.00075  0.27 0.045 0.00075  0.285 0.045 0.00075  0.3 0.045 0.00075  0 0.06 0.00075  0.015 0.06 0.00075  0.03 0.06 0.00075  0.045 0.06 0.00075  0.06 0.06 0.00075  0.075 0.06 0.00075  0.09 0.06 0.00075  0.105 0.06 0.00075  0.12 0.06 0.00075  0.135 0.06 0.00075  0.15 0.06 0.00075  0.165 0.06 0.00075  0.18 0.06 0.00075  0.195 0.06 0.00075  0.21 0.06 0.00075  0.225 0.06 0.00075  0.24 0.06 0.00075  0.255 0.06 0.00075  0.27 0.06 0.00075  0.285 0.06 0.00075  0.3 0.06 0.00075  0 0.075 0.00075  0.015 0.075 0.00075  0.03 0.075 0.00075  0.045 0.075 0.00075  0.06 0.075 0.00075  0.075 0.075 0.00075  0.09 0.075 0.00075  0.105 0.075 0.00075  0.12 0.075 0.00075  0.135 0.075 0.00075  0.15 0.075 0.00075  0.165 0.075 0.00075  0.18 0.075 0.00075  0.195 0.075 0.00075  0.21 0.075 0.00075  0.225 0.075 0.00075  0.24 0.075 0.00075  0.255 0.075 0.00075  0.27 0.075 0.00075  0.285 0.075 0.00075  0.3 0.075 0.00075  0 0.09 0.00075  0.015 0.09 0.00075  0.03 0.09 0.00075  0.045 0.09 0.00075  0.06 0.09 0.00075  0.075 0.09 0.00075  0.09 0.09 0.00075  0.105 0.09 0.00075  0.12 0.09 0.00075  0.135 0.09 0.00075  0.15 0.09 0.00075  0.165 0.09 0.00075  0.18 0.09 0.00075  0.195 0.09 0.00075  0.21 0.09 0.00075  0.225 0.09 0.00075  0.24 0.09 0.00075  0.255 0.09 0.00075  0.27 0.09 0.00075  0.285 0.09 0.00075  0.3 0.09 0.00075  0 0.105 0.00075  0.015 0.105 0.00075  0.03 0.105 0.00075  0.045 0.105 0.00075  0.06 0.105 0.00075  0.075 0.105 0.00075  0.09 0.105 0.00075  0.105 0.105 0.00075  0.12 0.105 0.00075  0.135 0.105 0.00075  0.15 0.105 0.00075  0.165 0.105 0.00075  0.18 0.105 0.00075  0.195 0.105 0.00075  0.21 0.105 0.00075  0.225 0.105 0.00075  0.24 0.105 0.00075  0.255 0.105 0.00075  0.27 0.105 0.00075  0.285 0.105 0.00075  0.3 0.105 0.00075  0 0.12 0.00075  0.015 0.12 0.00075  0.03 0.12 0.00075  0.045 0.12 0.00075  0.06 0.12 0.00075  0.075 0.12 0.00075  0.09 0.12 0.00075  0.105 0.12 0.00075  0.12 0.12 0.00075  0.135 0.12 0.00075  0.15 0.12 0.00075  0.165 0.12 0.00075  0.18 0.12 0.00075  0.195 0.12 0.00075  0.21 0.12 0.00075  0.225 0.12 0.00075  0.24 0.12 0.00075  0.255 0.12 0.00075  0.27 0.12 0.00075  0.285 0.12 0.00075  0.3 0.12 0.00075  0 0.135 0.00075  0.015 0.135 0.00075  0.03 0.135 0.00075  0.045 0.135 0.00075  0.06 0.135 0.00075  0.075 0.135 0.00075  0.09 0.1
[...]
<PointData  Vectors="f_205"> 
<DataArray  type="Float64"  Name="f_205"  NumberOfComponents="3" format="ascii">-2.4180535160653228e+01 -4.9020093481293372e+01 -1.9464748645147034e+00  -1.9921003308859895e+01 -4.7487772444917702e+01 -1.9704970502688488e+00  -1.5704196131613253e+01 -4.5877779396719866e+01 -1.9610805870673469e+00  -1.1599262610863532e+01 -4.4170477788876042e+01 -1.9322403630214728e+00  -7.6487502131856271e+00 -4.2380747529229204e+01 -1.8942790876598283e+00  -3.8695874862970894e+00 -4.0528422250416583e+01 -1.8528355538268912e+00  -2.6232576025624521e-01 -3.8625132191548566e+01 -1.8103710449848787e+00  3.1800563351507818e+00 -3.6669976498365003e+01 -1.7670919176736524e+00  6.4637483735372356e+00 -3.4648238788494886e+01 -1.7204176143951824e+00  9.5836419423457624e+00 -3.2534103351064466e+01 -1.6644498590977106e+00  1.2514047155542984e+01 -3.0301672013331167e+01 -1.5921606290434789e+00  1.5210740407876287e+01 -2.7942047303167275e+01 -1.5003330796210621e+00  1.7627885954328338e+01 -2.5473124113650350e+01 -1.3921297384384903e+00  1.9736050973774876e+01 -2.2932264412801146e+01 -1.2738558156222819e+00  2.1526678903245649e+01 -2.0360612255292288e+01 -1.1502751981948311e+00  2.3005079328481340e+01 -1.7793903069748090e+01 -1.0232658831611339e+00  2.4183052352978152e+01 -1.5263716091143051e+01 -8.9369468490653547e-01  2.5079124548740808e+01 -1.2803557416125919e+01 -7.6498055796851339e-01  2.5729774846524595e+01 -1.0450378169241505e+01 -6.4737525893427694e-01  2.6208539101405794e+01 -8.2286131324922227e+00 -5.5968511106239482e-01  2.6634744058082884e+01 -6.1123463788478460e+00 -5.2244891169223551e-01  -2.5725582809381436e+01 -4.4779831286164892e+01 -1.9175168288809905e+00  -2.1491911024732513e+01 -4.3311441078812706e+01 -1.9493542369157613e+00  -1.7322204018690279e+01 -4.1819263555050505e+01 -1.9437195579473721e+00  -1.3274991732446441e+01 -4.0262069077554962e+01 -1.9143777284679242e+00  -9.3825917551164117e+00 -3.8636778084581650e+01 -1.8738142028827094e+00  -5.6588578623233126e+00 -3.6951969703702851e+01 -1.8291275996348981e+00  -2.1072241425553226e+00 -3.5214097231175877e+01 -1.7833390134058149e+00  1.2734020818558669e+00 -3.3422133724201984e+01 -1.7368071660426245e+00  4.4835277040405526e+00 -3.1566690986382177e+01 -1.6871941050444184e+00  7.5166196148641164e+00 -2.9632612185799559e+01 -1.6289992950807839e+00  1.0353020737112059e+01 -2.7605745941490632e+01 -1.5551968149569215e+00  1.2960800967286081e+01 -2.5482104894504616e+01 -1.4617529881819280e+00  1.5306843284564005e+01 -2.3273517031697263e+01 -1.3508972082538044e+00  1.7369592879478969e+01 -2.1005076397672578e+01 -1.2288580865914087e+00  1.9142583336459257e+01 -1.8707223019201379e+01 -1.1010165337815270e+00  2.0629609269424613e+01 -1.6409496685613860e+01 -9.6985253865605581e-01  2.1839542939377203e+01 -1.4139235637311215e+01 -8.3656266224080633e-01  2.2786302034221830e+01 -1.1922631930890555e+01 -7.0472718469324447e-01  2.3496502951788155e+01 -9.7818051109975315e+00 -5.8466811480031189e-01  2.4024710418662149e+01 -7.7196628577942139e+00 -4.9510758747839362e-01  2.4470930330359558e+01 -5.6865120658161379e+00 -4.5177859060452397e-01  -2.7209928665759215e+01 -4.0508524212463108e+01 -1.8881882575772304e+00  -2.2992522375575401e+01 -3.9133511162528812e+01 -1.9237683782726274e+00  -1.8839898835562199e+01 -3.7761051845996057e+01 -1.9211950331044958e+00  -1.4819808449888606e+01 -3.6351197111323636e+01 -1.8911484713597508e+00  -1.0962983644992738e+01 -3.4889245549749226e+01 -1.8476285995482575e+00  -7.2805591909658824e+00 -3.3373661924593002e+01 -1.7988641846461884e+00  -3.7751719956300587e+00 -3.1805423103850011e+01 -1.7482430907401478e+00  -4.4688358996249061e-01 -3.0182890633862332e+01 -1.6961425827325698e+00  2.7032080358325219e+00 -2.8500877274589701e+01 -1.6405096757300492e+00  5.6688202340669180e+00 -2.6752491015508870e+01 -1.5767828545502969e+00  8.4343688893564579e+00 -2.4932750082997160e+01 -1.4991285788229309e+00  1.0975378492221861e+01 -2.3042306330006141e+01 -1.4038606633772743e+00  1.3266325435458381e+01 -2.1089532615353185e+01 -1.2922959759549388e+00  1.5290310362388363e+01 -1.9090106426375293e+01 -1.1694467784748719e+00  1.7041940458360994e+01 -1.7064463515550450e+01 -1.0401220207896786e+00  1.8523335247517341e+01 -1.5034713459294757e+01 -9.0690043577459922e-01  1.9739768472236559e+01 -1.3022386889053484e+01 -7.7143114156872306e-01  2.0700083529105342e+01 -1.1046331020694138e+01 -6.3798538721816789e-01  2.1424898869504300e+01 -9.1176800019467272e+00 -5.1783984246031667e-01  2.1963924272056900e+01 -7.2279823890802168e+00 -4.3075137381976852e-01  2.2419635730187114e+01 -5.3290020414213535e+00 -3.9102129002970742e-01  -2.8577378398927099e+01 -3.6202475713885242e+01 -1.8617978134206314e+00  -2.4372932713734574e+01 -3.4950932908547180e+01 -1.8991509564493896e+00  -2.0229142586857716e+01 -3.3711408433508332e+01 -1.8979480978989041e+00  -1.6221934326709501e+01 -3.2451092901254732e+01 -1.8672468214940536e+00  -1.2385626291806632e+01 -3.1152389557084099e+01 -1.8210790748775141e+00  -8.7312632127496599e+00 -2.9807939767064838e+01 -1.7681632490942762e+00  -5.2607193980520286e+00 -2.8414759791428303e+01 -1.7121093369467446e+00  -1.9739498261948558e+00 -2.6970508926987211e+01 -1.6533834946831967e+00  1.1276441842779146e+00 -2.5472646960798574e+01 -1.5903787495925110e+00  4.0384377800992555e+00 -2.3919294526349969e+01 -1.5197521949650938e+00  6.7460710169309337e+00 -2.2310731944174574e+01 -1.4373663525120155e+00  9.2318723035249715e+00 -2.0650259411234735e+01 -1.3404851759722618e+00  1.1476195481428714e+01 -1.8944376585697775e+01 -1.2296991026385928e+00  1.3465278433532827e+01 -1.7202998743741464e+01 -1.1083020277214599e+00  1.5193616085335924e+01 -1.5439375726150363e+01 -9.7980510951396582e-01  1.6661178654541061e+01 -1.3668952537298365e+01 -8.4648090985479851e-01  1.7870201520955618e+01 -1.1907213840192322e+01 -7.1037038426021715e-01  1.8826344323219395e+01 -1.0166558549836923e+01 -5.7642911325544277e-01  1.9547846129706880e+01 -8.4512627449431044e+00 -4.5668604517421807e-01  2.0084390268743427e+01 -6.7494697460038804e+00 -3.7148603581865791e-01  2.0542294499328349e+01 -5.0237036802476425e+00 -3.3423019121687292e-01  -2.9796819022130851e+01 -3.1867972747573742e+01 -1.8396620860507071e+00  -2.5603164810295645e+01 -3.0762778289259721e+01 -1.8775509305553537e+00  -2.1465765203612452e+01 -2.9670799365987527e+01 -1.8764268452863471e+00  -1.7466023650521773e+01 -2.8566820103782348e+01 -1.8445346296763931e+00  -1.3642161815883226e+01 -2.7434430716629183e+01 -1.7957691881738886e+00  -1.0006788025317306e+01 -2.6264373489039478e+01 -1.7389186179327076e+00  -6.5619858157807496e+00 -2.5051739790637541e+01 -1.6776791340940018e+00  -3.3077097401754521e+00 -2.3793733380244166e+01 -1.6126451494529959e+00  -2.4532949754549147e-01 -2.2489228086676501e+01 -1.5426861812282078e+00  2.6203206022566463e+00 -2.1138768369261747e+01 -1.4655395384416019e+00  5.2795320892296465e+00 -1.9744845139763790e+01 -1.3785401347995305e+00  7.7182538679099633e+00 -1.8311573339207509e+01 -1.2799025032642513e+00  9.9215840679627654e+00 -1.6844206163537173e+01 -1.1698080234349144e+00  1.1878243380286754e+01 -1.5349429779405058e+01 -1.0501242991649904e+00  1.3582367632291763e+01 -1.3835973505023848e+01 -9.2306760905752250e-01  1.5031943884722230e+01 -1.2314261506969107e+01 -7.9042519467245664e-01  1.6226977852023943e+01 -1.0794678372801307e+01 -6.5443994342411882e-01  1.7171495415447556e+01 -9.2846750122356223e+00 -5.2056054546000363e-01  1.7883324725499381e+01 -7.7847742269495077e+00 -4.0129110706884130e-01  1.8413453491123306e+01 -6.2838211611950632e+00 -3.1717892485327814e-01  1.8870627210267031e+01 -4.7559482830158251e+00 -2.8098214631736590e-01  -3.0850101845915869e+01 -2.7512905186392025e+01 -1.8223900876248635e+00  -2.6665427601019825e+01 -2.6570218077530050e+01 -1.8599956746437074e+00  -2.2533500646949769e+01 -2.5638631912467574e+01 -1.8580746403356472e+00  -1.8539250552763889e+01 -2.4699299936985565e+01 -1.8244614312137017e+00  -1.4724019206086069e+01 -2.3738417468731210e+01 -1.7730047318895288e+00  -1.1102331954366880e+01 -2.2747034543369114e+01 -1.7124942536848344e+00  -7.6771119169408868e+00 -2.1719904082771912e+01 -1.6466635933106892e+00  -4.4486607514729268e+00 -2.0654068448004185e+01 -1.5762195367125953e+00  -1.4182746443623668e+00 -1.9549126340139722e+01 -1.5004460296862323e+00  1.4100425972188164e+00 -1.8406448073351871e+01 -1.4178788093074832e+00  4.0287598590389306e+00 -1.7228938232645810e+01 -1.3268765667387024e+00  6.4273609026128611e+00 -1.6020427896166233e+01 -1.2263381051737918e+00  8.5945797561259223e+00 -1.4785125987764475e+01 -1.1162509471910544e+00  1.0521163718192970e+01 -1.3527840274395235e+01 -9.9756276081260686e-01  1.2201134431797742e+01 -1.2254539115757069e+01 -8.7155476756559846e-01  1.3631119151322835e+01 -1.0972183960341560e+01 -7.3957128832162666e-01  1.4809719755989709e+01 -9.6874153723837910e+00 -6.0389561474320419e-01  1.5740274897502511e+01 -8.4043339332573090e+00 -4.7023623656786950e-01  1.6440968627588234e+01 -7.1217693797623891e+00 -3.5131254121788019e-01  1.6964044092044634e+01 -5.8308422252810486e+00 -2.6762760834223021e-01  1.7419177377207749e+01 -4.5151679842653154e+00 -2.3145498954871552e-01  -3.1726500591610716e+01 -2.3143938324981065e+01 -1.8103986195728967e+00  -2.7549053439903098e+01 -2.2375009069811597e+01 -1.8471739551765720e+00  -2.3421892236662881e+01 -2.1614294631148766e+01 -1.8438758537004369e+00  -1.9432304461619818e+01 -2.0847673335328160e+01 -1.8081320478384819e+00  -1.5623929926268959e+01 -2.0064119977000960e+01 -1.7538558966611510e+00  -1.2013017841269079e+01 -1.9255956461755083e+01 -1.6899031870596393e+00  -8.6034639641940718e+00 -1.8418548552634309e+01 -1.6200906284876380e+00  -5.3961340889116549e+00 -1.7548888117671851e+01 -1.5451674478686530e+00  -2.3922324855043073e+00 -1.6647138172279639e+01 -1.4647315463555592e+00  4.0505730661153855e-01 -1.5714669137520913e+01 -1.3778401689758000e+00  2.9899588357641149e+00 -1.4753931061854363e+01 -1.2834830920255074e+00  5.3545667742156420e+00 -1.3767984148298401e+01 -1.1809808085446107e+00  7.4902731260995772e+00 -1.2760073882263761e+01 -1.0702415579055724e+00  9.3894449338275141e+00 -1.1733750053595351e+01 -9.5170335390087957e-01  1.1046295573380998e+01 -1.0693199358285606e+01 -8.2608462418304018e-01  1.2456766205645442e+01 -9.6430668410820903e+00 -6.9441230276090016e-01  1.3618744478216383e+01 -8.5874934188454528e+00 -5.5892365199266991e-01  1.4535397563311724e+01 -7.5285849051308142e+00 -4.2540735272350755e-01  1.5225418882504400e+01 -6.4647437952195475e+00 -3.0660790786035630e-01  1.5741856987270504e+01 -5.3896663662518636e+00 -2.2284926694093413e-01  1.6194300759444914e+01 -4.2938725329893481e+00 -1.8603303957401182e-01  -3.2419532300033957e+01 -1.8765494752679974e+01 -1.8041656881851973e+00  -2.8247400726310342e+01 -1.8178479778676337e+01 -1.8397533416485616e+00  -2.4124095521801319e+01 -1.7597020469382855e+01 -1.8347097189276993e+00  -2.0138614535892724e+01 -1.7010268599231903e+01 -1.7965274116737970e+00  -1.6336154155130124e+01 -1.6409640055063782e+01 -1.7392526577907086e+00  -1.2734328822899535e+01 -1.5788961471416114e+01 -1.6718942618899635e+00  -9.3378836000202288e+00 -1.5144761017273176e+01 -1.5985458358307203e+00  -6.1484069436934412e+00 -1.4473816844853184e+01 -1.5198679435185254e+00  -3.1668780176871620e+00 -1.3777254939591248e+01 -1.4356773139795826e+00  -3.9563987018689695e-01 -1.3056003864612244e+01 -1.3453045696719004e+00  2.1609262244138399e+00 -1.2311679586177654e+01 -1.2480982842251127e+00  4.4968048664541058e+00 -1.1546415055099487e+01 -1.1436278957531456e+00  6.6052861947928809e+00 -1.0762546083896792e+01 -1.0317832859971403e+00  8.4800055199192723e+00 -9.9626361579086264e+00 -9.1274996968208655e-01  1.0115564419912969e+01 -9.1496137307855427e+00 -7.8694264429641292e-01  1.1507715505546049e+01 -8.3265764691169490e+00 -6.5518635905320122e-01  1.2654105701116707e+01 -7.4961147465685780e+00 -5.1964258599886903e-01  1.3557978238443866e+01 -6.6593306115429760e+00 -3.8607612903904015e-01  1.4238448407877719e+01 -5.8149167424586921e+00 -2.6714635785552793e-01  1.4748921381207786e+01 -4.9589366032393558e+00 -1.8294059504537832e-01  1.5198341509033595e+01 -4.0866942155602359e+00 -1.4507001330770825e-01  -3.2924429537234488e+01 -1.4379221218489626e+01 -1.8041716798030956e+00  -2.8755629069584050e+01 -1.3980700102518394e+01 -1.8384248661946190e+00  -2.4635175206425966e+01 -1.3585171079177648e+01 -1.8315304336324225e+00  -2.0653388734806175e+01 -1.3184395888339646e+01 -1.7908027760345184e+00  -1.6856403389666184e+01 -1.2771954733632569e+01 -1.7304217662701160e+00  -1.3262498507582853e+01 -1.2342826333608633e+01 -1.6593816439105633e+00  -9.8770659218198400e+00 -1.1894693388123544e+01 -1.5825684896484082e+00  -6.7031878412097363e+00 -1.1423917210261306e+01 -1.5004536274197509e+00  -3.7411279149455492e+00 -1.0933752957751295e+01 -1.4131263864788053e+00  -9.9215328541917003e-01 -1.0424182581230825e+01 -1.3198558163357028e+00  1.5404612898857546e+00 -9.8957804709474040e+00 -1.2201523771750202e+00  3.8520385313484753e+00 -9.3497367484260270e+00 -1.1137395468082678e+00  5.9372039244306416e+00 -8.7875280480589666e+00 -1.0005228047376646e+00  7.7905662782918927e+00 -8.2108635054301047e+00 -8.8057581856843625e-01  9.4071839947252069e+00 -7.6217103579124670e+00 -7.5415944459204842e-01  1.0782901221817070e+01 -7.0221217905946762e+00 -6.2197610349119548e-01  1.1915384514665343e+01 -6.4137924532475488e+00 -4.8611049254802707e-01  1.2808034766731250e+01 -5.7974738835433017e+00 -3.5225709343380390e-01  1.3480234867482185e+01 -5.1725226908616753e+00 -2.3294157178207067e-01  1.3985417403081879e+01 -4.5370415650452740e+00 -1.4800470569581897e-01  1.4431648366429483e+01 -3.8896457137749074e+00 -1.0882839348717116e-01  -3.3235526746152161e+01 -9.9849456593198838e+00 -1.8101978312619509e+00  -2.9068890763306207e+01 -9.7804979578102245e+00 -1.8432217351170361e+00  -2.4950844074842340e+01 -9.5755144189401609e+00 -1.8347127326951367e+00  -2.0972761432854082e+01 -9.3649485480161943e+00 -1.7918292162869716e+00  -1.7181361151651213e+01 -9.1449595855853474e+00 -1.7287415947559217e+00  -1.3595684843480289e+01 -8.9126847875133368e+00 -1.6544357011916051e+00  -1.0217989372048567e+01 -8.6631142801960621e+00 -1.5737098967843031e+00  -7.0579360713822838e+00 -8.3938540001723130e+00 -1.4872622114015275e+00  -4.1136831429224099e+00 -8.1113761142247558e+00 -1.3969661209902764e+00  -1.3842563353623576e+00 -7.8140295508246540e+00 -1.3011357780586847e+00  1.1278762179681192e+00 -7.5012931261576004e+00 -1.1991558902542669e+00  3.4188717798658304e+00 -7.1734962802707969e+00 -1.0908314258376683e+00  5.4842471400328536e+00 -6.8313234632576076e+00 -9.7609554789359299e-01  7.3193333864529215e+00 -6.4757137121241115e+00 -8.5497811006459246e-01  8.9196236445379142e+00 -6.1078555710464313e+00 -7.2766345350391193e-01  1.0281164490491806e+01 -5.7290786903707218e+00 -5.9477856701599130e-01  1.1401738699564016e+01 -5.3406015984078756e+00 -4.5834041615110194e-01  1.2284882463162646e+01 -4.9432248520728717e+00 -3.2395980413813458e-01  1.2950084931619994e+01 -4.5371544153880556e+00 -2.0401789982827903e-01  1.3450593234392391e+01 -4.1222618047161310e+00 -1.1812519175668754e-01  1.3893556496497546e+01 -3.6995818855275342e+00 -7.7484714900463103e-02  -3.3345204318820521e+01 -5.5850999412673525e+00 -1.8209350010515621e+00  -2.9181454440438998e+01 -5.5786271196750885e+00 -1.8527563616166864e+00  -2.5066749856113642e+01 -5.5664383101815069e+00 -1.8426740835337281e+00  -2.1093543280666314e+01 -5.5472337887933199e+00 -1.7980003922800354e+00  -1.7308792947610666e+01 -5.5196702542588101e+00 -1.7331551689509579e+00  -1.3730451641265143e+01 -5.4826525865556235e+00 -1.6572903604034097e+00  -1.0360890303329354e+01 -5.4356182485849294e+00 -1.5756934528625783e+00  -7.2109766510876367e+00 -5.3768389160116659e+00 -1.4810772876335567e+00  -4.2839890306266089e+00 -5.3052741822386951e+00 -1.3872290518513537e+00  -1.5720475176158877e+00 -5.2212919604635379e+00 -1.2889108084423957e+00  9.2257048453721691e-01 -5.1243851268949792e+00 -1.1847622919302916e+00  3.1962492918033760e+00 -5.0143575895641037e+00 -1.0745464401106550e+00  5.2450413521821684e+00 -4.8912191972556052e+00 -9.5820900965824807e-01  7.0648164481264413e+00 -4.7552079013536268e+00 -8.3576204844531621e-01  8.6514537928823287e+00 -4.6068422314253485e+00 -7.0734940343587549e-01  1.0001219217771943e+01 -4.4469137900034150e+00 -5.7354800099635095e-01  1.1112005495360455e+01 -4.2764067073390013e+00 -4.3631664558150474e-01  1.1987396459373384e+01 -4.0963971242331567e+00 -3.0118401338473061e-01  1.2646826309451457e+01 -3.9080411659775827e+00 -1.8039507018673670e-01  1.3143215920030642e+01 -3.7128373601390723e+00 -9.3359067222180417e-02  1.3582858497071168e+01 -3.5138180863375941e+00 -5.1147414045068736e-02  -3.3247573496899982e+01 -1.1874684551494901e+00 -1.8356072690375642e+00  -2.9088066961730195e+01 -1.3806364065592582e+00 -1.8658432558925491e+00  -2.4977581749296885e+01 -1.5631839356035147e+00 -1.8535315240980339e+00  -2.1009562950125346e+01 -1.7373756498427841e+00 -1.8061426091394002e+00  -1.7231544530878644e+01 -1.9043799566481927e+00 -1.7381373462145853e+00  -1.3662107602173581e+01 -2.0648505477105146e+00 -1.6586605553770917e+00  -1.0307108466605040e+01 -2.2188772260694423e+00 -1.5718224607068279e+00  -7.1700055719418936e+00 -2.3701519815399807e+00 -1.4790012490868683e+00  -4.2556414473127946e+00 -2.5124658747084943e+00 -1.3833840421780150e+00  -1.5567940663028672e+00 -2.6429621624830948e+00 -1.2829379163415116e+00  9.2388500378917349e-01 -2.7622188328244750e+00 -1.1767296952031361e+00  3.1834087993939550e+00 -2.8698364042328426e+00 -1.0646390486528872e+00  5.2185473235006041e+00 -2.9652226631204397e+00 -9.4664740964418159e-01  7.0257510740070455e+00 -3.0479312154902880e+00 -8.2276462894286084e-01  8.6012943800920052e+00 -3.1178375684442305e+00 -6.9311037880331983e-01  9.9416532563358118e+00 -3.1752592025990034e+00 -5.5822322295156390e-01  1.1044771656731664e+01 -3.2210432225544854e+00 -4.2000965891685271e-01  1.1914149893898795e+01 -3.2566459906054228e+00 -2.8392163370737605e-01  1.2568991225213935e+01 -3.2842464129809739e+00 -1.6208309441975205e-01  1.3061767536913539e+01 -3.3069796139670493e+00 -7.3736190629835996e-02  1.3498005449325150e+01 -3.3298407525298184e+00 -2.9870861071517051e-02  -3.2945080891357790e+01 3.2011586879622396e+00 -1.8553004227631436e+00  -2.8790137210773324e+01 2.8088601369197166e+00 -1.8836561647529408e+00  -2.4684908425790056e+01 2.4306179722070826e+00 -1.8690399992327567e+00  -2.0723454607264809e+01 2.0612430650229476e+00 -1.8191063296509009e+00  -1.6953778199191447e+01 1.6970900013700414e+00 -1.7485257522523208e+00  -1.3394757890965870e+01 1.3359315567483412e+00 -1.6666934726304998e+00  -1.0052118601010633e+01 9.7674201401816518e-01 -1.5779979644015798e+00  -6.9277890085859877e+00 6.1855568242027636e-01 -1.4842413059609416e+00  -4.0226774638469944e+00 2.6703631265571071e-01 -1.3865708816184323e+00  -1.3352891743896051e+00 -7.7192119247717753e-02 -1.2835364868693415e+00  1.1331588134701998e+00 -4.1264839476922449e-01 -1.1750554363630885e+00  3.3805470483473186e+00 -7.3798416933936384e-01 -1.0609905711064236e+00  5.4042222689897832e+00 -1.0517964116553988e+00 -9.4126752278835535e-01  7.2010968323236630e+00 -1.3528519358283237e+00 -8.1585957711028156e-01  8.7677776238606899e+00 -1.6403089970212357e+00 -6.8485257728902971e-01  1.0100900654735529e+01 -1.9139529264061601e+00 -5.4874435246375564e-01  1.1198368272743036e+01 -2.1744563593304780e+00 -4.0938811893807653e-01  1.2063430967871977e+01 -2.4236538676772610e+00 -2.7216175628111228e-01  1.2714846680950881e+01 -2.6648065659877509e+00 -1.4908252854643966e-01  1.3204476935265872e+01 -2.9028475912511018e+00 -5.9260199376603429e-02  1.3637137145814368e+01 -3.1450539825798964e+00 -1.3662148472556309e-02  -3.2442179752300966e+01 7.5786217367184285e+00 -1.8809624310921964e+00  -2.8290637757692835e+01 6.9891877973168102e+00 -1.9073