<?xml version="1.0"?>
<VTKFile type="UnstructuredGrid"  version="0.1"  >
<UnstructuredGrid>
<Piece  NumberOfPoints="9261" NumberOfCells="48000">
<Points>
<DataArray  type="Float64"  NumberOfComponents="3"  format="ascii">0 0 0  0.015 0 0  0.03 0 0  0.045 0 0  0.06 0 0  0.075 0 0  0.09 0 0  0.105 0 0  0.12 0 0  0.135 0 0  0.15 0 0  0.165 0 0  0.18 0 0  0.195 0 0  0.21 0 0  0.225 0 0  0.24 0 0  0.255 0 0  0.27 0 0  0.285 0 0  0.3 0 0  0 0.015 0  0.015 0.015 0  0.03 0.015 0  0.045 0.015 0  0.06 0.015 0  0.075 0.015 0  0.09 0.015 0  0.105 0.015 0  0.12 0.015 0  0.135 0.015 0  0.15 0.015 0  0.165 0.015 0  0.18 0.015 0  0.195 0.015 0  0.21 0.015 0  0.225 0.015 0  0.24 0.015 0  0.255 0.015 0  0.27 0.015 0  0.285 0.015 0  0.3 0.015 0  0 0.03 0  0.015 0.03 0  0.03 0.03 0  0.045 0.03 0  0.06 0.03 0  0.075 0.03 0  0.09 0.03 0  0.105 0.03 0  0.12 0.03 0  0.135 0.03 0  0.15 0.03 0  0.165 0.03 0  0.18 0.03 0  0.195 0.03 0  0.21 0.03 0  0.225 0.03 0  0.24 0.03 0  0.255 0.03 0  0.27 0.03 0  0.285 0.03 0  0.3 0.03 0  0 0.045 0  0.015 0.045 0  0.03 0.045 0  0.045 0.045 0  0.06 0.045 0  0.075 0.045 0  0.09 0.045 0  0.105 0.045 0  0.12 0.045 0  0.135 0.045 0  0.15 0.045 0  0.165 0.045 0  0.18 0.045 0  0.195 0.045 0  0.21 0.045 0  0.225 0.045 0  0.24 0.045 0  0.255 0.045 0  0.27 0.045 0  0.285 0.045 0  0.3 0.045 0  0 0.06 0  0.015 0.06 0  0.03 0.06 0  0.045 0.06 0  0.06 0.06 0  0.075 0.06 0  0.09 0.06 0  0.105 0.06 0  0.12 0.06 0  0.135 0.06 0  0.15 0.06 0  0.165 0.06 0  0.18 0.06 0  0.195 0.06 0  0.21 0.06 0  0.225 0.06 0  0.24 0.06 0  0.255 0.06 0  0.27 0.06 0  0.285 0.06 0  0.3 0.06 0  0 0.075 0  0.015 0.075 0  0.03 0.075 0  0.045 0.075 0  0.06 0.075 0  0.075 0.075 0  0.09 0.075 0  0.105 0.075 0  0.12 0.075 0  0.135 0.075 0  0.15 0.075 0  0.165 0.075 0  0.18 0.075 0  0.195 0.075 0  0.21 0.075 0  0.225 0.075 0  0.24 0.075 0  0.255 0.075 0  0.27 0.075 0  0.285 0.075 0  0.3 0.075 0  0 0.09 0  0.015 0.09 0  0.03 0.09 0  0.045 0.09 0  0.06 0.09 0  0.075 0.09 0  0.09 0.09 0  0.105 0.09 0  0.12 0.09 0  0.135 0.09 0  0.15 0.09 0  0.165 0.09 0  0.18 0.09 0  0.195 0.09 0  0.21 0.09 0  0.225 0.09 0  0.24 0.09 0  0.255 0.09 0  0.27 0.09 0  0.285 0.09 0  0.3 0.09 0  0 0.105 0  0.015 0.105 0  0.03 0.105 0  0.045 0.105 0  0.06 0.105 0  0.075 0.105 0  0.09 0.105 0  0.105 0.105 0  0.12 0.105 0  0.135 0.105 0  0.15 0.105 0  0.165 0.105 0  0.18 0.105 0  0.195 0.105 0  0.21 0.105 0  0.225 0.105 0  0.24 0.105 0  0.255 0.105 0  0.27 0.105 0  0.285 0.105 0  0.3 0.105 0  0 0.12 0  0.015 0.12 0  0.03 0.12 0  0.045 0.12 0  0.06 0.12 0  0.075 0.12 0  0.09 0.12 0  0.105 0.12 0  0.12 0.12 0  0.135 0.12 0  0.15 0.12 0  0.165 0.12 0  0.18 0.12 0  0.195 0.12 0  0.21 0.12 0  0.225 0.12 0  0.24 0.12 0  0.255 0.12 0  0.27 0.12 0  0.285 0.12 0  0.3 0.12 0  0 0.135 0  0.015 0.135 0  0.03 0.135 0  0.045 0.135 0  0.06 0.135 0  0.075 0.135 0  0.09 0.135 0  0.105 0.135 0  0.12 0.135 0  0.135 0.135 0  0.15 0.135 0  0.165 0.135 0  0.18 0.135 0  0.195 0.135 0  0.21 0.135 0  0.225 0.135 0  0.24 0.135 0  0.255 0.135 0  0.27 0.135 0  0.285 0.135 0  0.3 0.135 0  0 0.15 0  0.015 0.15 0  0.03 0.15 0  0.045 0.15 0  0.06 0.15 0  0.075 0.15 0  0.09 0.15 0  0.105 0.15 0  0.12 0.15 0  0.135 0.15 0  0.15 0.15 0  0.165 0.15 0  0.18 0.15 0  0.195 0.15 0  0.21 0.15 0  0.225 0.15 0  0.24 0.15 0  0.255 0.15 0  0.27 0.15 0  0.285 0.15 0  0.3 0.15 0  0 0.165 0  0.015 0.165 0  0.03 0.165 0  0.045 0.165 0  0.06 0.165 0  0.075 0.165 0  0.09 0.165 0  0.105 0.165 0  0.12 0.165 0  0.135 0.165 0  0.15 0.165 0  0.165 0.165 0  0.18 0.165 0  0.195 0.165 0  0.21 0.165 0  0.225 0.165 0  0.24 0.165 0  0.255 0.165 0  0.27 0.165 0  0.285 0.165 0  0.3 0.165 0  0 0.18 0  0.015 0.18 0  0.03 0.18 0  0.045 0.18 0  0.06 0.18 0  0.075 0.18 0  0.09 0.18 0  0.105 0.18 0  0.12 0.18 0  0.135 0.18 0  0.15 0.18 0  0.165 0.18 0  0.18 0.18 0  0.195 0.18 0  0.21 0.18 0  0.225 0.18 0  0.24 0.18 0  0.255 0.18 0  0.27 0.18 0  0.285 0.18 0  0.3 0.18 0  0 0.195 0  0.015 0.195 0  0.03 0.195 0  0.045 0.195 0  0.06 0.195 0  0.075 0.195 0  0.09 0.195 0  0.105 0.195 0  0.12 0.195 0  0.135 0.195 0  0.15 0.195 0  0.165 0.195 0  0.18 0.195 0  0.195 0.195 0  0.21 0.195 0  0.225 0.195 0  0.24 0.195 0  0.255 0.195 0  0.27 0.195 0  0.285 0.195 0  0.3 0.195 0  0 0.21 0  0.015 0.21 0  0.03 0.21 0  0.045 0.21 0  0.06 0.21 0  0.075 0.21 0  0.09 0.21 0  0.105 0.21 0  0.12 0.21 0  0.135 0.21 0  0.15 0.21 0  0.165 0.21 0  0.18 0.21 0  0.195 0.21 0  0.21 0.21 0  0.225 0.21 0  0.24 0.21 0  0.255 0.21 0  0.27 0.21 0  0.285 0.21 0  0.3 0.21 0  0 0.225 0  0.015 0.225 0  0.03 0.225 0  0.045 0.225 0  0.06 0.225 0  0.075 0.225 0  0.09 0.225 0  0.105 0.225 0  0.12 0.225 0  0.135 0.225 0  0.15 0.225 0  0.165 0.225 0  0.18 0.225 0  0.195 0.225 0  0.21 0.225 0  0.225 0.225 0  0.24 0.225 0  0.255 0.225 0  0.27 0.225 0  0.285 0.225 0  0.3 0.225 0  0 0.24 0  0.015 0.24 0  0.03 0.24 0  0.045 0.24 0  0.06 0.24 0  0.075 0.24 0  0.09 0.24 0  0.105 0.24 0  0.12 0.24 0  0.135 0.24 0  0.15 0.24 0  0.165 0.24 0  0.18 0.24 0  0.195 0.24 0  0.21 0.24 0  0.225 0.24 0  0.24 0.24 0  0.255 0.24 0  0.27 0.24 0  0.285 0.24 0  0.3 0.24 0  0 0.255 0  0.015 0.255 0  0.03 0.255 0  0.045 0.255 0  0.06 0.255 0  0.075 0.255 0  0.09 0.255 0  0.105 0.255 0  0.12 0.255 0  0.135 0.255 0  0.15 0.255 0  0.165 0.255 0  0.18 0.255 0  0.195 0.255 0  0.21 0.255 0  0.225 0.255 0  0.24 0.255 0  0.255 0.255 0  0.27 0.255 0  0.285 0.255 0  0.3 0.255 0  0 0.27 0  0.015 0.27 0  0.03 0.27 0  0.045 0.27 0  0.06 0.27 0  0.075 0.27 0  0.09 0.27 0  0.105 0.27 0  0.12 0.27 0  0.135 0.27 0  0.15 0.27 0  0.165 0.27 0  0.18 0.27 0  0.195 0.27 0  0.21 0.27 0  0.225 0.27 0  0.24 0.27 0  0.255 0.27 0  0.27 0.27 0  0.285 0.27 0  0.3 0.27 0  0 0.285 0  0.015 0.285 0  0.03 0.285 0  0.045 0.285 0  0.06 0.285 0  0.075 0.285 0  0.09 0.285 0  0.105 0.285 0  0.12 0.285 0  0.135 0.285 0  0.15 0.285 0  0.165 0.285 0  0.18 0.285 0  0.195 0.285 0  0.21 0.285 0  0.225 0.285 0  0.24 0.285 0  0.255 0.285 0  0.27 0.285 0  0.285 0.285 0  0.3 0.285 0  0 0.3 0  0.015 0.3 0  0.03 0.3 0  0.045 0.3 0  0.06 0.3 0  0.075 0.3 0  0.09 0.3 0  0.105 0.3 0  0.12 0.3 0  0.135 0.3 0  0.15 0.3 0  0.165 0.3 0  0.18 0.3 0  0.195 0.3 0  0.21 0.3 0  0.225 0.3 0  0.24 0.3 0  0.255 0.3 0  0.27 0.3 0  0.285 0.3 0  0.3 0.3 0  0 0 0.00075  0.015 0 0.00075  0.03 0 0.00075  0.045 0 0.00075  0.06 0 0.00075  0.075 0 0.00075  0.09 0 0.00075  0.105 0 0.00075  0.12 0 0.00075  0.135 0 0.00075  0.15 0 0.00075  0.165 0 0.00075  0.18 0 0.00075  0.195 0 0.00075  0.21 0 0.00075  0.225 0 0.00075  0.24 0 0.00075  0.255 0 0.00075  0.27 0 0.00075  0.285 0 0.00075  0.3 0 0.00075  0 0.015 0.00075  0.015 0.015 0.00075  0.03 0.015 0.00075  0.045 0.015 0.00075  0.06 0.015 0.00075  0.075 0.015 0.00075  0.09 0.015 0.00075  0.105 0.015 0.00075  0.12 0.015 0.00075  0.135 0.015 0.00075  0.15 0.015 0.00075  0.165 0.015 0.00075  0.18 0.015 0.00075  0.195 0.015 0.00075  0.21 0.015 0.00075  0.225 0.015 0.00075  0.24 0.015 0.00075  0.255 0.015 0.00075  0.27 0.015 0.00075  0.285 0.015 0.00075  0.3 0.015 0.00075  0 0.03 0.00075  0.015 0.03 0.00075  0.03 0.03 0.00075  0.045 0.03 0.00075  0.06 0.03 0.00075  0.075 0.03 0.00075  0.09 0.03 0.00075  0.105 0.03 0.00075  0.12 0.03 0.00075  0.135 0.03 0.00075  0.15 0.03 0.00075  0.165 0.03 0.00075  0.18 0.03 0.00075  0.195 0.03 0.00075  0.21 0.03 0.00075  0.225 0.03 0.00075  0.24 0.03 0.00075  0.255 0.03 0.00075  0.27 0.03 0.00075  0.285 0.03 0.00075  0.3 0.03 0.00075  0 0.045 0.00075  0.015 0.045 0.00075  0.03 0.045 0.00075  0.045 0.045 0.00075  0.06 0.045 0.00075  0.075 0.045 0.00075  0.09 0.045 0.00075  0.105 0.045 0.00075  0.12 0.045 0.00075  0.135 0.045 0.00075  0.15 0.045 0.00075  0.165 0.045 0.00075  0.18 0.045 0.00075  0.195 0.045 0.00075  0.21 0.045 0.00075  0.225 0.045 0.00075  0.24 0.045 0.00075  0.255 0.045 0.00075  0.27 0.045 0.00075  0.285 0.045 0.00075  0.3 0.045 0.00075  0 0.06 0.00075  0.015 0.06 0.00075  0.03 0.06 0.00075  0.045 0.06 0.00075  0.06 0.06 0.00075  0.075 0.06 0.00075  0.09 0.06 0.00075  0.105 0.06 0.00075  0.12 0.06 0.00075  0.135 0.06 0.00075  0.15 0.06 0.00075  0.165 0.06 0.00075  0.18 0.06 0.00075  0.195 0.06 0.00075  0.21 0.06 0.00075  0.225 0.06 0.00075  0.24 0.06 0.00075  0.255 0.06 0.00075  0.27 0.06 0.00075  0.285 0.06 0.00075  0.3 0.06 0.00075  0 0.075 0.00075  0.015 0.075 0.00075  0.03 0.075 0.00075  0.045 0.075 0.00075  0.06 0.075 0.00075  0.075 0.075 0.00075  0.09 0.075 0.00075  0.105 0.075 0.00075  0.12 0.075 0.00075  0.135 0.075 0.00075  0.15 0.075 0.00075  0.165 0.075 0.00075  0.18 0.075 0.00075  0.195 0.075 0.00075  0.21 0.075 0.00075  0.225 0.075 0.00075  0.24 0.075 0.00075  0.255 0.075 0.00075  0.27 0.075 0.00075  0.285 0.075 0.00075  0.3 0.075 0.00075  0 0.09 0.00075  0.015 0.09 0.00075  0.03 0.09 0.00075  0.045 0.09 0.00075  0.06 0.09 0.00075  0.075 0.09 0.00075  0.09 0.09 0.00075  0.105 0.09 0.00075  0.12 0.09 0.00075  0.135 0.09 0.00075  0.15 0.09 0.00075  0.165 0.09 0.00075  0.18 0.09 0.00075  0.195 0.09 0.00075  0.21 0.09 0.00075  0.225 0.09 0.00075  0.24 0.09 0.00075  0.255 0.09 0.00075  0.27 0.09 0.00075  0.285 0.09 0.00075  0.3 0.09 0.00075  0 0.105 0.00075  0.015 0.105 0.00075  0.03 0.105 0.00075  0.045 0.105 0.00075  0.06 0.105 0.00075  0.075 0.105 0.00075  0.09 0.105 0.00075  0.105 0.105 0.00075  0.12 0.105 0.00075  0.135 0.105 0.00075  0.15 0.105 0.00075  0.165 0.105 0.00075  0.18 0.105 0.00075  0.195 0.105 0.00075  0.21 0.105 0.00075  0.225 0.105 0.00075  0.24 0.105 0.00075  0.255 0.105 0.00075  0.27 0.105 0.00075  0.285 0.105 0.00075  0.3 0.105 0.00075  0 0.12 0.00075  0.015 0.12 0.00075  0.03 0.12 0.00075  0.045 0.12 0.00075  0.06 0.12 0.00075  0.075 0.12 0.00075  0.09 0.12 0.00075  0.105 0.12 0.00075  0.12 0.12 0.00075  0.135 0.12 0.00075  0.15 0.12 0.00075  0.165 0.12 0.00075  0.18 0.12 0.00075  0.195 0.12 0.00075  0.21 0.12 0.00075  0.225 0.12 0.00075  0.24 0.12 0.00075  0.255 0.12 0.00075  0.27 0.12 0.00075  0.285 0.12 0.00075  0.3 0.12 0.00075  0 0.135 0.00075  0.015 0.135 0.00075  0.03 0.135 0.00075  0.045 0.135 0.00075  0.06 0.135 0.00075  0.075 0.135 0.00075  0.09 0.1
[...]
<PointData  Vectors="f_205"> 
<DataArray  type="Float64"  Name="f_205"  NumberOfComponents="3" format="ascii">-2.4228519363848665e+01 -4.7880819811112126e+01 -1.8573719392993084e+00  -2.0100331895890939e+01 -4.6484097439496345e+01 -1.8877185925655613e+00  -1.5984333118127786e+01 -4.5037719567344489e+01 -1.8919337327778885e+00  -1.1931300520712606e+01 -4.3498092799890124e+01 -1.8769009049414720e+00  -7.9882015763593373e+00 -4.1853509325356093e+01 -1.8488623819900165e+00  -4.1890653974073926e+00 -4.0108227361255523e+01 -1.8124304585470958e+00  -5.5481961506710475e-01 -3.8270137760007358e+01 -1.7701566863435969e+00  2.9017490298879620e+00 -3.6343835436026247e+01 -1.7225408137988070e+00  6.1696508837392985e+00 -3.4328948467274401e+01 -1.6684514899322165e+00  9.2346017539895868e+00 -3.2222562511631125e+01 -1.6058908026823715e+00  1.2076881396365486e+01 -3.0023946141241552e+01 -1.5329635031188726e+00  1.4672737910036492e+01 -2.7739339022878742e+01 -1.4487350407982567e+00  1.6998499011970939e+01 -2.5384756210920646e+01 -1.3536143060944754e+00  1.9035476511975755e+01 -2.2985956760185569e+01 -1.2491761170857214e+00  2.0773966027742546e+01 -2.0576318768315165e+01 -1.1377734441763163e+00  2.2216083863545901e+01 -1.8194010606782832e+01 -1.0224705454687091e+00  2.3378586792395822e+01 -1.5878886735398854e+01 -9.0756144715692022e-01  2.4296634905378703e+01 -1.3667469816929851e+01 -7.9940707847432224e-01  2.5027309640424086e+01 -1.1583221554664577e+01 -7.0696156762368401e-01  2.5648922297327250e+01 -9.6205211637749546e+00 -6.4122202288379904e-01  2.6250169830372972e+01 -7.7296015697837008e+00 -6.1318261373818839e-01  -2.5644348304441635e+01 -4.3766442665855493e+01 -1.8293038523877840e+00  -2.1539244780249977e+01 -4.2417953690222816e+01 -1.8663628265111232e+00  -1.7470032181235887e+01 -4.1063930972555241e+01 -1.8748241079958392e+00  -1.3483242810259556e+01 -3.9649503213818249e+01 -1.8609755511587256e+00  -9.6162669707230908e+00 -3.8152146915447709e+01 -1.8319303126724116e+00  -5.8962471941562375e+00 -3.6567460141103048e+01 -1.7932400792959611e+00  -2.3412129459142510e+00 -3.4898184908110487e+01 -1.7481940038609092e+00  1.0363990156206453e+00 -3.3147502220327169e+01 -1.6977375550965239e+00  4.2255708456954277e+00 -3.1316614452194262e+01 -1.6409085327551083e+00  7.2134082829751804e+00 -2.9405693905814772e+01 -1.5756598582843131e+00  9.9837995030521878e+00 -2.7416769454990511e+01 -1.4999075861083753e+00  1.2518456914358371e+01 -2.5356916218603939e+01 -1.4124960084609257e+00  1.4799823574605934e+01 -2.3240316212787381e+01 -1.3137000385008963e+00  1.6814545511230232e+01 -2.1088479228324726e+01 -1.2051278683970750e+00  1.8556292577513645e+01 -1.8928831838358324e+01 -1.0893376752225497e+00  2.0027678135182839e+01 -1.6792260853712829e+01 -9.6972399293645006e-01  2.1242061072690500e+01 -1.4709724640111727e+01 -8.5099616340161721e-01  2.2226020280916202e+01 -1.2706825231714761e+01 -7.3998803244505651e-01  2.3022131603491658e+01 -1.0794711542867679e+01 -6.4606327314376288e-01  2.3690588343796986e+01 -8.9563797939879510e+00 -5.8009039171427845e-01  2.4310499398199166e+01 -7.1289316343787723e+00 -5.4807535561513909e-01  -2.7023527078708948e+01 -3.9616977146670521e+01 -1.8000369555881415e+00  -2.2936973068346841e+01 -3.8344148524765146e+01 -1.8408855203802699e+00  -1.8889761116407897e+01 -3.7087960279982553e+01 -1.8532789996856178e+00  -1.4936454299544433e+01 -3.5797730371353367e+01 -1.8403936546525319e+00  -1.1113706096075054e+01 -3.4445836692223949e+01 -1.8099387787667078e+00  -7.4456434210708631e+00 -3.3021377588402338e+01 -1.7683186129620336e+00  -3.9474299626792293e+00 -3.1522297073077393e+01 -1.7195245638149304e+00  -6.2930121319765986e-01 -2.9949869884047061e+01 -1.6649892617417867e+00  2.4996461072687568e+00 -2.8306090449852416e+01 -1.6040614473875785e+00  5.4287639546663682e+00 -2.6593484290542673e+01 -1.5348743582570599e+00  8.1448482335154466e+00 -2.4816388100615093e+01 -1.4554082261811370e+00  1.0633018972552609e+01 -2.2982637095889395e+01 -1.3644651807226669e+00  1.2879033370679855e+01 -2.1104768628846717e+01 -1.2622183651613623e+00  1.4871988648262136e+01 -1.9200220946259112e+01 -1.1502010790866339e+00  1.6606455885564927e+01 -1.7290423699251381e+01 -1.0310157937947513e+00  1.8083925476375491e+01 -1.5398788849833986e+01 -9.0828386215589740e-01  1.9314436061763832e+01 -1.3547527759386957e+01 -7.8715533258948600e-01  2.0319313943134134e+01 -1.1752545377566838e+01 -6.7509924680278699e-01  2.1135043917088645e+01 -1.0015853268385660e+01 -5.8220767551121977e-01  2.1817556112596375e+01 -8.3155030132868877e+00 -5.1983509822280705e-01  2.2449229192930105e+01 -6.5936240673199462e+00 -4.9187593835816934e-01  -2.8307147905223250e+01 -3.5426587173288333e+01 -1.7729007918713182e+00  -2.4237118372525984e+01 -3.4260087200210677e+01 -1.8159918442749252e+00  -2.0203150650270921e+01 -3.3117311834305731e+01 -1.8307598314171878e+00  -1.6267186750472273e+01 -3.1956611849329676e+01 -1.8184916076907942e+00  -1.2469242426650254e+01 -3.0751298061798817e+01 -1.7866731554144191e+00  -8.8336188285801232e+00 -2.9487598338403146e+01 -1.7420962517088230e+00  -5.3741902879952343e+00 -2.8160337718008332e+01 -1.6892536432432865e+00  -2.0993751955902282e+00 -2.6769103724828241e+01 -1.6300747197395320e+00  9.8376496757110299e-01 -2.5315953748780927e+01 -1.5643848180073541e+00  3.8668590465041568e+00 -2.3804613811748979e+01 -1.4907504423502003e+00  6.5392414805333896e+00 -2.2240660032801632e+01 -1.4074683322131016e+00  8.9886186276005837e+00 -2.0632088603643851e+01 -1.3134570311613654e+00  1.1202928396093261e+01 -1.8989789019261270e+01 -1.2087930102471145e+00  1.3172533409339152e+01 -1.7327571667306891e+01 -1.0947928066245827e+00  1.4892016681361747e+01 -1.5661537459458115e+01 -9.7387878810454953e-01  1.6361572543611082e+01 -1.4008469541773493e+01 -8.4965940897112424e-01  1.7588956667881920e+01 -1.2383225349719666e+01 -7.2749895148096522e-01  1.8592887847722203e+01 -1.0794448163337242e+01 -6.1526287691745851e-01  1.9407958290189026e+01 -9.2388654934020806e+00 -5.2350859457381815e-01  2.0090328250677235e+01 -7.6947978702698840e+00 -4.6388451709343104e-01  2.0726172212034204e+01 -6.1163557635908177e+00 -4.3900757357077458e-01  -2.9459307016047944e+01 -3.1201010906042409e+01 -1.7496416965432846e+00  -2.5403709441291070e+01 -3.0165818372664454e+01 -1.7938423165289894e+00  -2.1379462874972013e+01 -2.9153433972311895e+01 -1.8096593626333186e+00  -1.7453620400574291e+01 -2.8131604326783737e+01 -1.7972712862398543e+00  -1.3669943117342585e+01 -2.7077350279814247e+01 -1.7638749891557277e+00  -1.0054483801531605e+01 -2.5976962769527844e+01 -1.7163415115738079e+00  -6.6212548538479528e+00 -2.4823981276683103e+01 -1.6594551168610912e+00  -3.3778154031716010e+00 -2.3616897999635913e+01 -1.5955597815862477e+00  -3.2976993854022646e-01 -2.2357430199567116e+01 -1.5249799426177821e+00  2.5163884229915463e+00 -2.1049540223900223e+01 -1.4468056294448763e+00  5.1521564391329866e+00 -1.9699018639286290e+01 -1.3597670261530257e+00  7.5674111443715733e+00 -1.8313367429101259e+01 -1.2629989340248597e+00  9.7518437801382927e+00 -1.6901771674744353e+01 -1.1565250100507398e+00  1.1696742455222273e+01 -1.5474935702805409e+01 -1.0414112711898855e+00  1.3396619075730623e+01 -1.4044603515174934e+01 -9.1979453967047420e-01  1.4850728070346671e+01 -1.2622227980513673e+01 -7.9511209162507834e-01  1.6065536467265112e+01 -1.1217153634439985e+01 -6.7276712342840339e-01  1.7058774295379745e+01 -9.8332097397825500e+00 -5.6082028091949343e-01  1.7865009694403863e+01 -8.4648029975478263e+00 -4.7006093675486205e-01  1.8541812876351258e+01 -7.0932648148797446e+00 -4.1220592884636942e-01  1.9177863148220517e+01 -5.6852567101983507e+00 -3.8905371743048967e-01  -3.0457825011116316e+01 -2.6948802815035531e+01 -1.7311775313767541e+00  -2.6414489451655225e+01 -2.6063447221999233e+01 -1.7756619185339679e+00  -2.2398218079671214e+01 -2.5196523595938149e+01 -1.7915663726634294e+00  -1.8479344138132962e+01 -2.4323927314056288e+01 -1.7783869068620510e+00  -1.4704710569036150e+01 -2.3427172027536571e+01 -1.7431265038587316e+00  -1.1102456639405046e+01 -2.2494214403173821e+01 -1.6926493501468560e+00  -7.6875047335287139e+00 -2.1518668379229897e+01 -1.6319000120283536e+00  -4.4673372583021287e+00 -2.0498554321739594e+01 -1.5635328932333254e+00  -1.4467435345987629e+00 -1.9435124164058607e+01 -1.4883052305421387e+00  1.3691584855933934e+00 -1.8331958398965924e+01 -1.4057982711779542e+00  3.9736234020503640e+00 -1.7194323694383435e+01 -1.3151764046896344e+00  6.3583768417270141e+00 -1.6028727739474469e+01 -1.2158234889685779e+00  8.5146503892228864e+00 -1.4842628314718056e+01 -1.1077645667645215e+00  1.0434609295939808e+01 -1.3644130093055917e+01 -9.9186210758480486e-01  1.2112897904694428e+01 -1.2441624733937990e+01 -8.6997198949497501e-01  1.3548276332391424e+01 -1.1242525930443671e+01 -7.4528268401339937e-01  1.4746664840338982e+01 -1.0052476463395092e+01 -6.2312955901610467e-01  1.5725674286022480e+01 -8.8724883136632808e+00 -5.1161892642339957e-01  1.6520500976145090e+01 -7.6965451158981839e+00 -4.2159980175307937e-01  1.7190050939503664e+01 -6.5099320846720490e+00 -3.6471072604156196e-01  1.7824153998859241e+01 -5.2899199268871762e+00 -3.4220220659469941e-01  -3.1288946970684364e+01 -2.2677839617630553e+01 -1.7180139905153584e+00  -2.7255747590008205e+01 -2.1955586481546590e+01 -1.7622104343718847e+00  -2.3246311476082738e+01 -2.1246382819565607e+01 -1.7775594343764236e+00  -1.9333057618793315e+01 -2.0532653980594009e+01 -1.7631131131169735e+00  -1.5565126996204096e+01 -1.9800257725847761e+01 -1.7257792263535712e+00  -1.1972522537768034e+01 -1.9039470472400012e+01 -1.6724211512273208e+00  -8.5712863281683802e+00 -1.8244763833954703e+01 -1.6080856465472320e+00  -5.3692380183827835e+00 -1.7414157818198507e+01 -1.5356491353609472e+00  -2.3708070337190956e+00 -1.6548465864526083e+01 -1.4562026385147890e+00  4.1983326921628367e-01 -1.5650573120869964e+01 -1.3697241172818684e+00  2.9973127146072764e+00 -1.4724795315714136e+01 -1.2757449158361289e+00  5.3549027355995955e+00 -1.3776345923915104e+01 -1.1738805979280225e+00  7.4851970123682223e+00 -1.2810977469272034e+01 -1.0642036926958902e+00  9.3812055042803291e+00 -1.1834629516610038e+01 -9.4746651411346472e-01  1.1037923004377658e+01 -1.0853258494728884e+01 -8.2533757220037407e-01  1.2453937042692010e+01 -9.8712424717484915e+00 -7.0070983345751914e-01  1.3635123946331113e+01 -8.8921536606563727e+00 -5.7879937578449514e-01  1.4599403731751694e+01 -7.9156182694298680e+00 -4.6765076881325557e-01  1.5382692149534686e+01 -6.9362455254350239e+00 -3.7805744968271193e-01  1.6044791230247682e+01 -5.9432318776198372e+00 -3.2150632426579673e-01  1.6675716613736466e+01 -4.9220005975007171e+00 -2.9887767624623951e-01  -3.1943834960958046e+01 -1.8394259437095382e+01 -1.7103896783994081e+00  -2.7918833413558467e+01 -1.7844545555555708e+01 -1.7539248943218646e+00  -2.3915345029173569e+01 -1.7302516538184847e+01 -1.7683199083463028e+00  -2.0007179779038584e+01 -1.6755734671927460e+01 -1.7523243102369115e+00  -1.6245116188585097e+01 -1.6193936750872510e+01 -1.7128259209438814e+00  -1.2660614705806251e+01 -1.5609859046146022e+01 -1.6567175401938130e+00  -9.2707234573243209e+00 -1.4999195388225125e+01 -1.5891281162745821e+00  -6.0837051654953518e+00 -1.4360259050796900e+01 -1.5130908351823789e+00  -3.1038620388038836e+00 -1.3693511936551108e+01 -1.4299305799437076e+00  -3.3471982656220556e-01 -1.3001039736378978e+01 -1.3399055450685591e+00  2.2194083509060882e+00 -1.2286021726245567e+01 -1.2428117267325840e+00  4.5530512022224192e+00 -1.1552252975894422e+01 -1.1384443978721903e+00  6.6600343847169263e+00 -1.0803780085624558e+01 -1.0269370372305227e+00  8.5341095785594803e+00 -1.0044653885950467e+01 -9.0903204293225937e-01  1.0170712594771754e+01 -9.2792043929953074e+00 -7.8645329219089943e-01  1.1568302210820539e+01 -8.5093533120994973e+00 -6.6172569218834354e-01  1.2733080578064857e+01 -7.7381896954139862e+00 -5.3993369118648804e-01  1.3683505005854638e+01 -6.9648066623286224e+00 -4.2895888635150559e-01  1.4456088916530799e+01 -6.1848970438668029e+00 -3.3946721240447980e-01  1.5111079489535435e+01 -5.3911177404979220e+00 -2.8277172379006693e-01  1.5738107935931895e+01 -4.5749070062043451e+00 -2.5950692555075855e-01  -3.2416262238895335e+01 -1.4102658646128877e+01 -1.7083082941808589e+00  -2.8397886969496774e+01 -1.3732214190755565e+01 -1.7509441245231030e+00  -2.4399694878774177e+01 -1.3364300905034566e+01 -1.7641433617860394e+00  -2.0496520109138896e+01 -1.2990688110796428e+01 -1.7464508014358651e+00  -1.6740281620031976e+01 -1.2604529760357602e+01 -1.7047874880930980e+00  -1.3163477539989453e+01 -1.2200940719921370e+01 -1.6461076839714222e+00  -9.7839094095476522e+00 -1.1776956161592171e+01 -1.5756226658844554e+00  -6.6102042272865047e+00 -1.1331338923172018e+01 -1.4964842361476243e+00  -3.6466000392553104e+00 -1.0864302343242171e+01 -1.4101755602517214e+00  -8.9614282201139950e-01 -1.0377171262427760e+01 -1.3171303457059500e+00  1.6376729643108001e+00 -9.8720036462597012e+00 -1.2172918158665700e+00  3.9503795985278956e+00 -9.3512158527111833e+00 -1.1105337625060345e+00  6.0368831297483938e+00 -8.8172177038798552e+00 -9.9701487101233377e-01  7.8918267156859772e+00 -8.2720415546848365e+00 -8.7731493349395562e-01  9.5110370342011752e+00 -7.7187166782553751e+00 -7.5377572114078040e-01  1.0892030256231589e+01 -7.1570744188833002e+00 -6.2851644957871455e-01  1.2041863455216498e+01 -6.5916395362200682e+00 -5.0662441769637567e-01  1.2979824316852165e+01 -6.0211662698998305e+00 -3.9559449434602301e-01  1.3742836960650349e+01 -5.4425126728263447e+00 -3.0589997709505817e-01  1.4391223233765986e+01 -4.8512810410635527e+00 -2.4868858405010355e-01  1.5013942728796200e+01 -4.2433460675210704e+00 -2.2444116116579285e-01  -3.2701402410338517e+01 -9.8069140024003776e+00 -1.7115877496086669e+00  -2.8688584035796005e+01 -9.6204192213364781e+00 -1.7531501730078305e+00  -2.4695342450454170e+01 -9.4313934334992879e+00 -1.7649746884006741e+00  -2.0797352343957336e+01 -9.2353297049420107e+00 -1.7454830861906037e+00  -1.7047322006246223e+01 -9.0284681589693712e+00 -1.7016629005188622e+00  -1.3478424589164142e+01 -8.8081544968204373e+00 -1.6405547548207529e+00  -1.0108937115211543e+01 -8.5727419671678078e+00 -1.5674621017958581e+00  -6.9476982364343431e+00 -8.3214739670224258e+00 -1.4856446244526704e+00  -3.9988556933132737e+00 -8.0543581941850402e+00 -1.3967141512032528e+00  -1.2650536004957302e+00 -7.7720129285709563e+00 -1.3012395348965466e+00  1.2508898287271539e+00 -7.4754829954209674e+00 -1.1992655376698038e+00  3.5453666074558465e+00 -7.1660455499136262e+00 -1.0906729289160284e+00  5.6140922526710062e+00 -6.8449958629931045e+00 -9.7547838497789885e-01  7.4519928571214757e+00 -6.5135491793326601e+00 -8.5412075257604925e-01  9.0587455208689089e+00 -6.1698764092080181e+00 -7.2871844063309865e-01  1.0425669415787624e+01 -5.8137865543593250e+00 -6.0145326883839856e-01  1.1561979616419068e+01 -5.4527933553183301e+00 -4.7899148614948334e-01  1.2488915869105774e+01 -5.0849971887574474e+00 -3.6762769967650788e-01  1.3243531687332661e+01 -4.7084386233880098e+00 -2.7744308075477603e-01  1.3885855337407696e+01 -4.3213167256741913e+00 -2.1942081150963577e-01  1.4504048728366126e+01 -3.9229330998240219e+00 -1.9395276468891312e-01  -3.2795646784667767e+01 -5.5109705061386229e+00 -1.7200085488206862e+00  -2.8787764825188599e+01 -5.5113232951144360e+00 -1.7603282376832561e+00  -2.4799414499522282e+01 -5.5041060088372733e+00 -1.7705953489488520e+00  -2.0906993166295386e+01 -5.4883500142574748e+00 -1.7491786714559574e+00  -1.7163743724892008e+01 -5.4632107544516453e+00 -1.7031445558995870e+00  -1.3603215084867958e+01 -5.4281324425793303e+00 -1.6396274438458114e+00  -1.0243902165329095e+01 -5.3826908241121068e+00 -1.5640225289968048e+00  -7.0946935777565132e+00 -5.3265353235512061e+00 -1.4796849573641420e+00  -4.1596052183559129e+00 -5.2593959900809883e+00 -1.3883345083175196e+00  -1.4409609669205865e+00 -5.1810962253374120e+00 -1.2906628483590179e+00  1.0589163984216252e+00 -5.0915436396966083e+00 -1.1868465468455087e+00  3.3370836927034753e+00 -4.9907089359973860e+00 -1.0768964710647699e+00  5.3900867978591727e+00 -4.8786195379104180e+00 -9.6092688502059376e-01  7.2146473130361937e+00 -4.7553989652210227e+00 -8.3941639243035915e-01  8.8107702489778585e+00 -4.6217088235674257e+00 -7.1486064247275960e-01  1.0168752460917327e+01 -4.4770295238441138e+00 -5.8132804495804968e-01  1.1292594162156037e+01 -4.3214181436647232e+00 -4.5723928647944828e-01  1.2210041979106425e+01 -4.1561812408471903e+00 -3.4514758199434042e-01  1.2957616930270209e+01 -3.9816836211827642e+00 -2.5418537678628722e-01  1.3594527777742650e+01 -3.7988283839445001e+00 -1.9510772900392576e-01  1.4208112426513056e+01 -3.6098974788466798e+00 -1.6824861240162950e-01  -3.2697007172818125e+01 -1.2190272454650091e+00 -1.7334970163836538e+00  -2.8693611986581381e+01 -1.4074122290271647e+00 -1.7723895757209140e+00  -2.4710223416702291e+01 -1.5832784707545200e+00 -1.7809068458971744e+00  -2.0823827629918238e+01 -1.7491974268045780e+00 -1.7574187343962022e+00  -1.7087971736651564e+01 -1.9072278378530110e+00 -1.7090696034970194e+00  -1.3536307774219722e+01 -2.0588421949185411e+00 -1.6430802022931574e+00  -1.0187300395216674e+01 -2.2047378293520685e+00 -1.5649224206487484e+00  -7.0497057463761488e+00 -2.3448732059201256e+00 -1.4780177639867433e+00  -4.1273029863333663e+00 -2.4786321563536391e+00 -1.3841447672470744e+00  -1.4220600160398613e+00 -2.6050140879703720e+00 -1.2840433972054361e+00  1.0641734599457642e+00 -2.7227992248907422e+00 -1.1779154080223073e+00  3.3289886964292532e+00 -2.8306904519462939e+00 -1.0657523656070202e+00  5.3693380368755124e+00 -2.9274565388518505e+00 -9.4756780908888572e-01  7.1818557511311036e+00 -3.0121901118444452e+00 -8.2371019596133210e-01  8.7633140318823930e+00 -3.0843912097448407e+00 -6.9539566630320337e-01  1.0111426929446196e+01 -3.1481372860960546e+00 -5.6524995547582113e-01  1.1228373372976025e+01 -3.1985377174510443e+00 -4.4096402398558893e-01  1.2140695500375720e+01 -3.2349890555686764e+00 -3.2814527181931585e-01  1.2883715352347835e+01 -3.2613219557562889e+00 -2.3619572957276691e-01  1.3516237342371870e+01 -3.2814829270557868e+00 -1.7585328774267472e-01  1.4125198391872395e+01 -3.3008031350743603e+00 -1.4746731683627906e-01  -3.2405354217343422e+01 3.0648486798153818e+00 -1.7521863911773095e+00  -2.8405825274458142e+01 2.6889427666495624e+00 -1.7894684932672522e+00  -2.4427389010150300e+01 2.3303573234105479e+00 -1.7960631951765109e+00  -2.0547439796005797e+01 1.9827498053575998e+00 -1.7703832864661981e+00  -1.6819565998931374e+01 1.6410236695719411e+00 -1.7196532225462118e+00  -1.3277257062468379e+01 1.3017057326141641e+00 -1.6511742911476095e+00  -9.9387390549664367e+00 9.6310515678320796e-01 -1.5704872330490984e+00  -6.8125157460393799e+00 6.2510431937580535e-01 -1.4810701182624557e+00  -3.9021064148164180e+00 2.8878121892323594e-01 -1.3847502747129101e+00  -1.2091941610830554e+00 -4.3982873340828295e-02 -1.2823135259622505e+00  1.2646843829056622e+00 -3.7084078566555784e-01 -1.1740095607935874e+00  3.5174222988754527e+00 -6.8926234679251719e-01 -1.0598905108454144e+00  5.5461854683182148e+00 -9.9680335359548800e-01 -9.4006641565696436e-01  7.3476470293363354e+00 -1.2914149680431282e+00 -8.1502668857394234e-01  8.9187996545431876e+00 -1.5718191658829761e+00 -6.8617124400233442e-01  1.0258755126995649e+01 -1.8386374877417750e+00 -5.5645354705394467e-01  1.1373226654549264e+01 -2.0878158226544197e+00 -4.3141302388831360e-01  1.2282322669642017e+01 -2.3223677996987688e+00 -3.1711362048568581e-01  1.3021825757930760e+01 -2.5465693085990835e+00 -2.2368342210224282e-01  1.3650317281613432e+01 -2.7669169280160828e+00 -1.6175400158726158e-01  1.4254339189606295e+01 -2.9920679506116561e+00 -1.3168147457362414e-01  -3.1922116273148450e+01 7.3370537091987966e+00 -1.7763121415231515e+00  -2.7925462562974705e+01 6.7758830469032940e+00 -1.8118