<?xml version="1.0"?>
<VTKFile type="UnstructuredGrid"  version="0.1"  >
<UnstructuredGrid>
<Piece  NumberOfPoints="9261" NumberOfCells="48000">
<Points>
<DataArray  type="Float64"  NumberOfComponents="3"  format="ascii">0 0 0  0.015 0 0  0.03 0 0  0.045 0 0  0.06 0 0  0.075 0 0  0.09 0 0  0.105 0 0  0.12 0 0  0.135 0 0  0.15 0 0  0.165 0 0  0.18 0 0  0.195 0 0  0.21 0 0  0.225 0 0  0.24 0 0  0.255 0 0  0.27 0 0  0.285 0 0  0.3 0 0  0 0.015 0  0.015 0.015 0  0.03 0.015 0  0.045 0.015 0  0.06 0.015 0  0.075 0.015 0  0.09 0.015 0  0.105 0.015 0  0.12 0.015 0  0.135 0.015 0  0.15 0.015 0  0.165 0.015 0  0.18 0.015 0  0.195 0.015 0  0.21 0.015 0  0.225 0.015 0  0.24 0.015 0  0.255 0.015 0  0.27 0.015 0  0.285 0.015 0  0.3 0.015 0  0 0.03 0  0.015 0.03 0  0.03 0.03 0  0.045 0.03 0  0.06 0.03 0  0.075 0.03 0  0.09 0.03 0  0.105 0.03 0  0.12 0.03 0  0.135 0.03 0  0.15 0.03 0  0.165 0.03 0  0.18 0.03 0  0.195 0.03 0  0.21 0.03 0  0.225 0.03 0  0.24 0.03 0  0.255 0.03 0  0.27 0.03 0  0.285 0.03 0  0.3 0.03 0  0 0.045 0  0.015 0.045 0  0.03 0.045 0  0.045 0.045 0  0.06 0.045 0  0.075 0.045 0  0.09 0.045 0  0.105 0.045 0  0.12 0.045 0  0.135 0.045 0  0.15 0.045 0  0.165 0.045 0  0.18 0.045 0  0.195 0.045 0  0.21 0.045 0  0.225 0.045 0  0.24 0.045 0  0.255 0.045 0  0.27 0.045 0  0.285 0.045 0  0.3 0.045 0  0 0.06 0  0.015 0.06 0  0.03 0.06 0  0.045 0.06 0  0.06 0.06 0  0.075 0.06 0  0.09 0.06 0  0.105 0.06 0  0.12 0.06 0  0.135 0.06 0  0.15 0.06 0  0.165 0.06 0  0.18 0.06 0  0.195 0.06 0  0.21 0.06 0  0.225 0.06 0  0.24 0.06 0  0.255 0.06 0  0.27 0.06 0  0.285 0.06 0  0.3 0.06 0  0 0.075 0  0.015 0.075 0  0.03 0.075 0  0.045 0.075 0  0.06 0.075 0  0.075 0.075 0  0.09 0.075 0  0.105 0.075 0  0.12 0.075 0  0.135 0.075 0  0.15 0.075 0  0.165 0.075 0  0.18 0.075 0  0.195 0.075 0  0.21 0.075 0  0.225 0.075 0  0.24 0.075 0  0.255 0.075 0  0.27 0.075 0  0.285 0.075 0  0.3 0.075 0  0 0.09 0  0.015 0.09 0  0.03 0.09 0  0.045 0.09 0  0.06 0.09 0  0.075 0.09 0  0.09 0.09 0  0.105 0.09 0  0.12 0.09 0  0.135 0.09 0  0.15 0.09 0  0.165 0.09 0  0.18 0.09 0  0.195 0.09 0  0.21 0.09 0  0.225 0.09 0  0.24 0.09 0  0.255 0.09 0  0.27 0.09 0  0.285 0.09 0  0.3 0.09 0  0 0.105 0  0.015 0.105 0  0.03 0.105 0  0.045 0.105 0  0.06 0.105 0  0.075 0.105 0  0.09 0.105 0  0.105 0.105 0  0.12 0.105 0  0.135 0.105 0  0.15 0.105 0  0.165 0.105 0  0.18 0.105 0  0.195 0.105 0  0.21 0.105 0  0.225 0.105 0  0.24 0.105 0  0.255 0.105 0  0.27 0.105 0  0.285 0.105 0  0.3 0.105 0  0 0.12 0  0.015 0.12 0  0.03 0.12 0  0.045 0.12 0  0.06 0.12 0  0.075 0.12 0  0.09 0.12 0  0.105 0.12 0  0.12 0.12 0  0.135 0.12 0  0.15 0.12 0  0.165 0.12 0  0.18 0.12 0  0.195 0.12 0  0.21 0.12 0  0.225 0.12 0  0.24 0.12 0  0.255 0.12 0  0.27 0.12 0  0.285 0.12 0  0.3 0.12 0  0 0.135 0  0.015 0.135 0  0.03 0.135 0  0.045 0.135 0  0.06 0.135 0  0.075 0.135 0  0.09 0.135 0  0.105 0.135 0  0.12 0.135 0  0.135 0.135 0  0.15 0.135 0  0.165 0.135 0  0.18 0.135 0  0.195 0.135 0  0.21 0.135 0  0.225 0.135 0  0.24 0.135 0  0.255 0.135 0  0.27 0.135 0  0.285 0.135 0  0.3 0.135 0  0 0.15 0  0.015 0.15 0  0.03 0.15 0  0.045 0.15 0  0.06 0.15 0  0.075 0.15 0  0.09 0.15 0  0.105 0.15 0  0.12 0.15 0  0.135 0.15 0  0.15 0.15 0  0.165 0.15 0  0.18 0.15 0  0.195 0.15 0  0.21 0.15 0  0.225 0.15 0  0.24 0.15 0  0.255 0.15 0  0.27 0.15 0  0.285 0.15 0  0.3 0.15 0  0 0.165 0  0.015 0.165 0  0.03 0.165 0  0.045 0.165 0  0.06 0.165 0  0.075 0.165 0  0.09 0.165 0  0.105 0.165 0  0.12 0.165 0  0.135 0.165 0  0.15 0.165 0  0.165 0.165 0  0.18 0.165 0  0.195 0.165 0  0.21 0.165 0  0.225 0.165 0  0.24 0.165 0  0.255 0.165 0  0.27 0.165 0  0.285 0.165 0  0.3 0.165 0  0 0.18 0  0.015 0.18 0  0.03 0.18 0  0.045 0.18 0  0.06 0.18 0  0.075 0.18 0  0.09 0.18 0  0.105 0.18 0  0.12 0.18 0  0.135 0.18 0  0.15 0.18 0  0.165 0.18 0  0.18 0.18 0  0.195 0.18 0  0.21 0.18 0  0.225 0.18 0  0.24 0.18 0  0.255 0.18 0  0.27 0.18 0  0.285 0.18 0  0.3 0.18 0  0 0.195 0  0.015 0.195 0  0.03 0.195 0  0.045 0.195 0  0.06 0.195 0  0.075 0.195 0  0.09 0.195 0  0.105 0.195 0  0.12 0.195 0  0.135 0.195 0  0.15 0.195 0  0.165 0.195 0  0.18 0.195 0  0.195 0.195 0  0.21 0.195 0  0.225 0.195 0  0.24 0.195 0  0.255 0.195 0  0.27 0.195 0  0.285 0.195 0  0.3 0.195 0  0 0.21 0  0.015 0.21 0  0.03 0.21 0  0.045 0.21 0  0.06 0.21 0  0.075 0.21 0  0.09 0.21 0  0.105 0.21 0  0.12 0.21 0  0.135 0.21 0  0.15 0.21 0  0.165 0.21 0  0.18 0.21 0  0.195 0.21 0  0.21 0.21 0  0.225 0.21 0  0.24 0.21 0  0.255 0.21 0  0.27 0.21 0  0.285 0.21 0  0.3 0.21 0  0 0.225 0  0.015 0.225 0  0.03 0.225 0  0.045 0.225 0  0.06 0.225 0  0.075 0.225 0  0.09 0.225 0  0.105 0.225 0  0.12 0.225 0  0.135 0.225 0  0.15 0.225 0  0.165 0.225 0  0.18 0.225 0  0.195 0.225 0  0.21 0.225 0  0.225 0.225 0  0.24 0.225 0  0.255 0.225 0  0.27 0.225 0  0.285 0.225 0  0.3 0.225 0  0 0.24 0  0.015 0.24 0  0.03 0.24 0  0.045 0.24 0  0.06 0.24 0  0.075 0.24 0  0.09 0.24 0  0.105 0.24 0  0.12 0.24 0  0.135 0.24 0  0.15 0.24 0  0.165 0.24 0  0.18 0.24 0  0.195 0.24 0  0.21 0.24 0  0.225 0.24 0  0.24 0.24 0  0.255 0.24 0  0.27 0.24 0  0.285 0.24 0  0.3 0.24 0  0 0.255 0  0.015 0.255 0  0.03 0.255 0  0.045 0.255 0  0.06 0.255 0  0.075 0.255 0  0.09 0.255 0  0.105 0.255 0  0.12 0.255 0  0.135 0.255 0  0.15 0.255 0  0.165 0.255 0  0.18 0.255 0  0.195 0.255 0  0.21 0.255 0  0.225 0.255 0  0.24 0.255 0  0.255 0.255 0  0.27 0.255 0  0.285 0.255 0  0.3 0.255 0  0 0.27 0  0.015 0.27 0  0.03 0.27 0  0.045 0.27 0  0.06 0.27 0  0.075 0.27 0  0.09 0.27 0  0.105 0.27 0  0.12 0.27 0  0.135 0.27 0  0.15 0.27 0  0.165 0.27 0  0.18 0.27 0  0.195 0.27 0  0.21 0.27 0  0.225 0.27 0  0.24 0.27 0  0.255 0.27 0  0.27 0.27 0  0.285 0.27 0  0.3 0.27 0  0 0.285 0  0.015 0.285 0  0.03 0.285 0  0.045 0.285 0  0.06 0.285 0  0.075 0.285 0  0.09 0.285 0  0.105 0.285 0  0.12 0.285 0  0.135 0.285 0  0.15 0.285 0  0.165 0.285 0  0.18 0.285 0  0.195 0.285 0  0.21 0.285 0  0.225 0.285 0  0.24 0.285 0  0.255 0.285 0  0.27 0.285 0  0.285 0.285 0  0.3 0.285 0  0 0.3 0  0.015 0.3 0  0.03 0.3 0  0.045 0.3 0  0.06 0.3 0  0.075 0.3 0  0.09 0.3 0  0.105 0.3 0  0.12 0.3 0  0.135 0.3 0  0.15 0.3 0  0.165 0.3 0  0.18 0.3 0  0.195 0.3 0  0.21 0.3 0  0.225 0.3 0  0.24 0.3 0  0.255 0.3 0  0.27 0.3 0  0.285 0.3 0  0.3 0.3 0  0 0 0.00075  0.015 0 0.00075  0.03 0 0.00075  0.045 0 0.00075  0.06 0 0.00075  0.075 0 0.00075  0.09 0 0.00075  0.105 0 0.00075  0.12 0 0.00075  0.135 0 0.00075  0.15 0 0.00075  0.165 0 0.00075  0.18 0 0.00075  0.195 0 0.00075  0.21 0 0.00075  0.225 0 0.00075  0.24 0 0.00075  0.255 0 0.00075  0.27 0 0.00075  0.285 0 0.00075  0.3 0 0.00075  0 0.015 0.00075  0.015 0.015 0.00075  0.03 0.015 0.00075  0.045 0.015 0.00075  0.06 0.015 0.00075  0.075 0.015 0.00075  0.09 0.015 0.00075  0.105 0.015 0.00075  0.12 0.015 0.00075  0.135 0.015 0.00075  0.15 0.015 0.00075  0.165 0.015 0.00075  0.18 0.015 0.00075  0.195 0.015 0.00075  0.21 0.015 0.00075  0.225 0.015 0.00075  0.24 0.015 0.00075  0.255 0.015 0.00075  0.27 0.015 0.00075  0.285 0.015 0.00075  0.3 0.015 0.00075  0 0.03 0.00075  0.015 0.03 0.00075  0.03 0.03 0.00075  0.045 0.03 0.00075  0.06 0.03 0.00075  0.075 0.03 0.00075  0.09 0.03 0.00075  0.105 0.03 0.00075  0.12 0.03 0.00075  0.135 0.03 0.00075  0.15 0.03 0.00075  0.165 0.03 0.00075  0.18 0.03 0.00075  0.195 0.03 0.00075  0.21 0.03 0.00075  0.225 0.03 0.00075  0.24 0.03 0.00075  0.255 0.03 0.00075  0.27 0.03 0.00075  0.285 0.03 0.00075  0.3 0.03 0.00075  0 0.045 0.00075  0.015 0.045 0.00075  0.03 0.045 0.00075  0.045 0.045 0.00075  0.06 0.045 0.00075  0.075 0.045 0.00075  0.09 0.045 0.00075  0.105 0.045 0.00075  0.12 0.045 0.00075  0.135 0.045 0.00075  0.15 0.045 0.00075  0.165 0.045 0.00075  0.18 0.045 0.00075  0.195 0.045 0.00075  0.21 0.045 0.00075  0.225 0.045 0.00075  0.24 0.045 0.00075  0.255 0.045 0.00075  0.27 0.045 0.00075  0.285 0.045 0.00075  0.3 0.045 0.00075  0 0.06 0.00075  0.015 0.06 0.00075  0.03 0.06 0.00075  0.045 0.06 0.00075  0.06 0.06 0.00075  0.075 0.06 0.00075  0.09 0.06 0.00075  0.105 0.06 0.00075  0.12 0.06 0.00075  0.135 0.06 0.00075  0.15 0.06 0.00075  0.165 0.06 0.00075  0.18 0.06 0.00075  0.195 0.06 0.00075  0.21 0.06 0.00075  0.225 0.06 0.00075  0.24 0.06 0.00075  0.255 0.06 0.00075  0.27 0.06 0.00075  0.285 0.06 0.00075  0.3 0.06 0.00075  0 0.075 0.00075  0.015 0.075 0.00075  0.03 0.075 0.00075  0.045 0.075 0.00075  0.06 0.075 0.00075  0.075 0.075 0.00075  0.09 0.075 0.00075  0.105 0.075 0.00075  0.12 0.075 0.00075  0.135 0.075 0.00075  0.15 0.075 0.00075  0.165 0.075 0.00075  0.18 0.075 0.00075  0.195 0.075 0.00075  0.21 0.075 0.00075  0.225 0.075 0.00075  0.24 0.075 0.00075  0.255 0.075 0.00075  0.27 0.075 0.00075  0.285 0.075 0.00075  0.3 0.075 0.00075  0 0.09 0.00075  0.015 0.09 0.00075  0.03 0.09 0.00075  0.045 0.09 0.00075  0.06 0.09 0.00075  0.075 0.09 0.00075  0.09 0.09 0.00075  0.105 0.09 0.00075  0.12 0.09 0.00075  0.135 0.09 0.00075  0.15 0.09 0.00075  0.165 0.09 0.00075  0.18 0.09 0.00075  0.195 0.09 0.00075  0.21 0.09 0.00075  0.225 0.09 0.00075  0.24 0.09 0.00075  0.255 0.09 0.00075  0.27 0.09 0.00075  0.285 0.09 0.00075  0.3 0.09 0.00075  0 0.105 0.00075  0.015 0.105 0.00075  0.03 0.105 0.00075  0.045 0.105 0.00075  0.06 0.105 0.00075  0.075 0.105 0.00075  0.09 0.105 0.00075  0.105 0.105 0.00075  0.12 0.105 0.00075  0.135 0.105 0.00075  0.15 0.105 0.00075  0.165 0.105 0.00075  0.18 0.105 0.00075  0.195 0.105 0.00075  0.21 0.105 0.00075  0.225 0.105 0.00075  0.24 0.105 0.00075  0.255 0.105 0.00075  0.27 0.105 0.00075  0.285 0.105 0.00075  0.3 0.105 0.00075  0 0.12 0.00075  0.015 0.12 0.00075  0.03 0.12 0.00075  0.045 0.12 0.00075  0.06 0.12 0.00075  0.075 0.12 0.00075  0.09 0.12 0.00075  0.105 0.12 0.00075  0.12 0.12 0.00075  0.135 0.12 0.00075  0.15 0.12 0.00075  0.165 0.12 0.00075  0.18 0.12 0.00075  0.195 0.12 0.00075  0.21 0.12 0.00075  0.225 0.12 0.00075  0.24 0.12 0.00075  0.255 0.12 0.00075  0.27 0.12 0.00075  0.285 0.12 0.00075  0.3 0.12 0.00075  0 0.135 0.00075  0.015 0.135 0.00075  0.03 0.135 0.00075  0.045 0.135 0.00075  0.06 0.135 0.00075  0.075 0.135 0.00075  0.09 0.1
[...]
<PointData  Scalars="f_1662"> 
<DataArray  type="Float64"  Name="f_1662"  format="ascii">4.6969750332803409e-10  -7.9860446087559583e-10  -4.9926183601804116e-10  2.0900057142836533e-09  -5.5427476033318423e-09  5.1790576068398603e-09  -3.4354709552287012e-10  -1.5472567300878923e-09  -2.3892744270829763e-10  3.5112029319004206e-10  3.0022770852284810e-10  1.4430333366961557e-10  5.2549561788446201e-11  1.5968356297060018e-11  4.2465138083381854e-12  1.0165907816291994e-12  2.2317618620991367e-13  4.5516537245385342e-14  8.7110448572833693e-15  1.5392273620875554e-15  6.1196374150964894e-16  -1.1445223394828010e-09  -4.1985378717156492e-09  -9.8550923862034687e-10  3.8650407139570465e-09  -1.7264431197345094e-08  2.3484804287371785e-08  -6.8162816576738514e-09  -6.4926632341701139e-09  7.1797449189118737e-10  2.3395308914510916e-09  1.4396529473407924e-09  5.8526162671518930e-10  1.8809879250818097e-10  5.1390823392833663e-11  1.2409899550123002e-11  2.7130508869311232e-12  5.4562904252155280e-13  1.0207707098629000e-13  1.7906610226531656e-14  2.8803439055992316e-15  9.3827360519657260e-16  -4.2166633788926952e-08  -3.7916350288557899e-08  -4.8870810159479541e-09  7.2365550312836136e-09  -8.5355062837098004e-08  1.8101837511123093e-07  -9.7120768772892450e-08  -3.9992652323997634e-08  2.3247431571845516e-08  2.5246212115625087e-08  1.2431307129171031e-08  4.4059729739403369e-09  1.2738631735520801e-09  3.1839108500779550e-10  7.1111201322962320e-11  1.4495043060427398e-11  2.7355733192007968e-12  4.8290292971870296e-13  8.0322952804578376e-14  1.2481666676097072e-14  3.8120969999642215e-15  -6.2872311937822691e-07  -3.0669134673093667e-07  -1.7096559056898504e-08  -3.4398784900364075e-09  -3.0147698956061395e-07  1.2566959703402948e-06  -1.0678311820986109e-06  -1.0806293604163426e-07  3.5096034780795905e-07  2.4563836310662510e-07  1.0012812923239631e-07  3.0991158219181144e-08  8.0059938676925591e-09  1.8108054867112794e-09  3.6890375019276787e-10  6.8941970202069234e-11  1.1966643052150312e-11  1.9458840814702893e-12  2.9814296039983116e-13  4.2913161535971539e-14  1.1936269274842126e-14  -7.1816283958733771e-06  -2.0099649722919373e-06  2.8525905681673470e-07  2.8206726108628391e-07  7.0424958575018610e-09  7.6019938851734359e-06  -9.7687407980684353e-06  1.8684574651263978e-06  4.1604523203905924e-06  2.1738789270570502e-06  7.4651456276936750e-07  2.0207409357873667e-07  4.6502246474843945e-08  9.4723802979795229e-09  1.7500530026183961e-09  2.9790609864854886e-10  4.7215019137345185e-11  7.0151296693191651e-12  9.8105097939554034e-13  1.2933757725671847e-13  3.2364278182456907e-14  -6.8090034978863644e-05  -7.0110892290391561e-06  8.8708041048473128e-06  9.0107601821567570e-06  1.2982610137381946e-05  3.9539270675605650e-05  -7.4103081919606141e-05  4.4366240815857193e-05  4.2775461944729731e-05  1.7602848500119452e-05  5.1191247374949443e-06  1.2075648419529353e-06  2.4595920057132253e-07  4.4764595799195204e-08  7.4317690265392189e-09  1.1401252172914596e-09  1.6291611128250808e-10  2.1774695448861875e-11  2.7243101540070352e-12  3.2003092537592292e-13  6.9294208347927696e-14  -5.2009416580299321e-04  7.3577150911072054e-05  1.5575701668988956e-04  1.5027475465232725e-04  1.7320213298826036e-04  1.9752888890158440e-04  -4.1750509973417907e-04  6.3236924136143608e-04  3.9345467055333498e-04  1.2982912401061225e-04  3.1842610378631865e-05  6.4869677639869018e-06  1.1566007752058191e-06  1.8570652297192290e-07  2.7297493116285250e-08  3.7070820584352663e-09  4.6682293833513432e-10  5.4425878320221440e-11  5.8258658074167709e-12  5.6813374560141041e-13  9.3215478067729741e-14  -2.4855624249183858e-03  2.1867960267060163e-03  2.2820311251443856e-03  2.1157163771125163e-03  2.0773198715701253e-03  1.6409024044108367e-03  -6.7739599720450855e-04  7.3487274698170110e-03  3.2523932130632915e-03  8.5793510572397178e-04  1.7506664747761721e-04  3.0297107692722295e-05  4.6412033351484591e-06  6.4320329359559113e-07  8.1461252087242374e-08  9.4419641614610626e-09  9.9343612857745755e-10  9.2592240116121929e-11  7.1568545451523326e-12  3.6762125112019714e-13  -2.6992106353950633e-14  1.1439188071390485e-02  3.5875281537253924e-02  3.1437907152957557e-02  2.9379175068825675e-02  2.8343644099513308e-02  2.5957761421732416e-02  2.4762967939199514e-02  7.4151315404212784e-02  2.3724636468696818e-02  4.8937877423451959e-03  8.0882360117664131e-04  1.1541730904777475e-04  1.4663029474268614e-05  1.6746237109268288e-06  1.7076767587745604e-07  1.5070271251013399e-08  1.0424693746029093e-09  3.2580531644526391e-11  -5.7970391876038209e-12  -1.5653145523318118e-12  -4.9394221999164514e-13  5.2561556779324803e-01  4.8307569396212091e-01  4.1766498007059383e-01  4.0430664317365622e-01  4.0337556768408361e-01  4.1115895782580097e-01  4.6052268754350201e-01  6.4100556542519393e-01  1.4352338542900325e-01  2.2052135554279255e-02  2.7976266275005447e-03  3.0804198614825957e-04  2.9471227682040342e-05  2.3379304690303043e-06  1.2621038397211094e-07  -1.8637869284487712e-09  -1.8256017805738407e-09  -3.3987843032517013e-10  -4.6057425593681750e-11  -5.2240581969926775e-12  -9.6769053864026362e-13  7.9161083390922675e+00  5.1065774480798760e+00  4.6256865441372303e+00  4.5718869440329462e+00  4.5667240536255278e+00  4.5622636980616642e+00  4.5118201711578285e+00  4.0143388328891687e+00  5.7665479062168723e-01  5.8706826934431029e-02  4.8020723178351281e-03  2.8488581501965666e-04  2.8403213270755868e-06  -2.5460058576228989e-06  -5.2114426107853331e-07  -7.2363026414966086e-08  -8.1663726422458921e-09  -7.6542956856114275e-10  -5.5486681276492949e-11  -2.0333001335808052e-12  5.4091586834647987e-13  1.3231277420136545e+00  3.4753878011156064e-01  4.1096021702593433e-01  4.4567542056728465e-01  4.5205277054685189e-01  4.5061277910727199e-01  4.3189842927865890e-01  3.1043963563754817e-01  -2.0750722661235388e-01  -5.5487846182825033e-02  -9.0704930646966289e-03  -1.1937760271858381e-03  -1.3542330197110285e-04  -1.3373338456353314e-05  -1.1107354649322922e-06  -6.7119742635214159e-08  -5.2495320571415294e-10  6.7179217501327458e-10  1.3927730814603272e-10  2.0075520960773712e-11  4.6295102274110274e-12  1.5696148569712493e-01  -2.1797053828360169e-02  3.0108364331723356e-02  3.5231187510930087e-02  3.4249744589806085e-02  3.3174947981243909e-02  2.9004546429381349e-02  9.7356580725865005e-03  -4.4171172257244630e-02  2.2459125853476996e-03  2.6436865859203011e-03  6.9313314090915931e-04  1.2823264670997373e-04  1.9658931039435944e-05  2.6389833370232321e-06  3.1668017045006332e-07  3.4025371136809385e-08  3.2131111295669773e-09  2.5103840676363765e-10  1.3088983810454085e-11  -7.9389445269130231e-13  1.5882948741300716e-02  -9.6751219176587338e-03  4.0443166895949749e-03  2.9027937078710173e-03  2.3548166773066136e-03  2.1646427944044529e-03  1.4803884047076801e-03  -1.0047420104407191e-03  -5.5208404484772180e-03  2.3560823899360368e-03  4.0556525477055126e-04  -3.8312915671093333e-05  -3.1040497435617017e-05  -8.6687676306821423e-06  -1.7682416308752647e-06  -3.0176566915277144e-07  -4.5375949672053750e-08  -6.1565319992635783e-09  -7.6141713084061307e-10  -8.7314109554163183e-11  -1.7615206000272793e-11  1.4021502472844416e-03  -1.7606655410822220e-03  8.4887299719071181e-04  1.9249949508694491e-04  1.2803271833357108e-04  1.2198250371688057e-04  2.7012511371927454e-05  -2.5099369906404691e-04  -5.3312303315176989e-04  5.2517925072627673e-04  -3.9734725933104423e-05  -3.2465786449286480e-05  -4.6180554407091047e-06  3.8614251013875579e-07  3.5700676158933185e-07  1.0830295661673344e-07  2.4003512011492021e-08  4.4567116357503198e-09  7.3093294646449832e-10  1.1054776555083830e-10  2.9987165243321907e-11  1.0291710710882764e-04  -2.4680466410233485e-04  1.6847086687029318e-04  -9.3338992224711617e-06  2.7192576973237141e-06  5.7330282577446134e-06  -7.0239291484172714e-06  -3.4412123029994011e-05  -3.9868351099331288e-05  8.2173568300054613e-05  -2.6399511594398256e-05  -4.0272932143313183e-06  9.7715587597839554e-07  4.2007105495404951e-07  6.1473021445555828e-08  -2.5729927596022338e-09  -4.0051605132135502e-09  -1.3412615197321255e-09  -3.2110552810517854e-10  -6.5304704655551904e-11  -2.2860422639553904e-11  5.0377354628934429e-06  -2.9574458429343933e-05  2.8875802072903456e-05  -7.6222760081747294e-06  5.2864293572291855e-08  3.3219056463507824e-07  -1.4682771162221032e-06  -3.7536248497959456e-06  -1.7293085860823239e-06  1.0536486502162449e-05  -6.4825770252860849e-06  4.1806166457648573e-07  3.8893537826616793e-07  3.0323848186925751e-08  -1.4787816099031440e-08  -5.4993487220510077e-09  -8.7647006746604839e-10  -4.6982187731345452e-12  4.3166394011386436e-11  1.6721870851173405e-11  8.5795692710330069e-12  -1.1465087776764123e-07  -3.1057736473518513e-06  4.3478236820121560e-06  -2.0110880092756441e-06  2.3098352715391674e-07  3.6457960907260115e-08  -2.1413060105471918e-07  -3.4303887586385193e-07  1.0994182606702868e-07  1.1544002308114805e-06  -1.1679177659086845e-06  2.9852821736060522e-07  4.9811141417416272e-08  -1.4237999776470937e-08  -4.9488158589012866e-09  -2.6354363491704362e-10  2.0021195692240165e-10  7.2660407963625496e-11  1.2767686516983119e-11  6.0661024031190286e-13  -8.9103857234454121e-13  -7.4218498658614389e-08  -2.8219820636043838e-07  5.8694175721362500e-07  -3.9890270487420854e-07  9.7970611944349862e-08  -1.6309667586609630e-09  -2.8607860314840015e-08  -2.4482340122376064e-08  4.0677103595419214e-08  1.0724898725365267e-07  -1.7555156223969757e-07  8.0916183920064667e-08  -3.4210918970273064e-09  -4.8495992602754610e-09  -2.2410419850979595e-10  2.3942586536946824e-10  6.3343608161001323e-11  2.9483916289082796e-12  -2.5769744797045229e-12  -9.8396685448888815e-13  -3.7400435702894444e-13  -1.2997069499091515e-08  -2.1114138248097827e-08  7.3038362942002359e-08  -6.8587184624524774e-08  2.6682397453434678e-08  -3.4271000643150813e-09  -3.5759315080035454e-09  -7.6554426108508330e-10  6.7521829250422133e-09  7.9526159388503938e-09  -2.3430803733173289e-08  1.6509310684071242e-08  -3.4314158413132615e-09  -6.9434127031512394e-10  1.9315573942853034e-10  6.0641626413067313e-11  -1.0118353052508779e-12  -3.6111719044285660e-12  -8.4332385591624301e-13  -3.8274272903720976e-14  6.7713985797243876e-14  -3.7112657969402193e-09  -1.8440708838705932e-09  1.6112064199510636e-08  -2.0517774991200264e-08  1.1212562567323569e-08  -2.6619887382384486e-09  -6.4537613854559415e-10  3.4958000522790777e-10  1.6758876253372065e-09  5.8236869666400409e-10  -5.4204499170888304e-09  5.5106977040485264e-09  -2.0431016122845364e-09  3.2046563508079149e-11  1.2543149640901632e-10  4.1504876050676059e-12  -6.8231840153023210e-12  -1.4074845901170195e-12  8.3598880086337246e-14  1.0082600948503122e-13  4.0677555119946283e-14  4.6799144696522664e-10  -8.0183742583433945e-10  -4.9825675092508250e-10  2.0865177548884675e-09  -5.5462796277812053e-09  5.1937052119724860e-09  -3.5197203545437976e-10  -1.5511217535097154e-09  -2.3712085178586791e-10  3.5323948490190180e-10  3.0126222554260896e-10  1.4465456339721388e-10  5.2643487201315665e-11  1.5989102784691617e-11  4.2503362653408554e-12  1.0171584697037071e-12  2.2323347328283592e-13  4.5515816265326935e-14  8.7086956866386791e-15  1.5385461174273897e-15  6.1108631987404347e-16  -1.1602868583338599e-09  -4.2061672632786188e-09  -9.8287120635019681e-10  3.8415668214684386e-09  -1.7228948389233991e-08  2.3493105641123113e-08  -6.8494946813951086e-09  -6.4918386296864850e-09  7.3039899516808956e-10  2.3471701560039870e-09  1.4424709110817612e-09  5.8602753138133698e-10  1.8826155036180607e-10  5.1417441769563377e-11  1.2412686723919613e-11  2.7129539810773351e-12  5.4547882350952913e-13  1.0202576607279301e-13  1.7893583644402073e-14  2.8780726404187528e-15  9.3710118277110799e-16  -4.2297229046507371e-08  -3.7964882543803482e-08  -4.8818956672785102e-09  7.1458250016891338e-09  -8.5053953515052098e-08  1.8095764112807934e-07  -9.7373055575745125e-08  -3.9896974345610633e-08  2.3383335825271098e-08  2.5311474635720200e-08  1.2451958550197819e-08  4.4109443110648495e-09  1.2748142183380062e-09  3.1853240829690695e-10  7.1124658518701319e-11  1.4494557665498759e-11  2.7349332170013107e-12  4.8270075843080714e-13  8.0275287738016254e-14  1.2473846923219057e-14  3.8068046504604299e-15  -6.2963314192356525e-07  -3.0683033167779845e-07  -1.6910263183911230e-08  -3.4300790754531903e-09  -2.9931224260288950e-07  1.2553604999102329e-06  -1.0692822742470759e-06  -1.0639498227708258e-07  3.5229782661111410e-07  2.4614844487195709e-07  1.0026222865078090e-07  3.1017916697340421e-08  8.0100312364678888e-09  1.8111860200928885e-09  3.6888763774127377e-10  6.8923270177913464e-11  1.1960878174016741e-11  1.9445570083526568e-12  2.9788118352229631e-13  4.2871776727353339e-14  1.1914287484226432e-14  -7.1857116119429505e-06  -2.0073086306242794e-06  2.8959977587806572e-07  2.8694348013796232e-07  2.0593195660339812e-08  7.5881693259304759e-06  -9.7712247610223821e-06  1.8897904356723477e-06  4.1723283476864570e-06  2.1774885123977702e-06  7.4728207848836100e-07  2.0219285769956869e-07  4.6513509621051037e-08  9.4719230077334975e-09  1.7495200013181679e-09  2.9774537176340243e-10  4.7179026652328453e-11  7.0082515717771782e-12  9.7987281957534728e-13  1.2916379461051100e-13  3.2286820102289137e-14  -6.8074874676982684e-05  -6.9423937075771072e-06  8.9397358628662335e-06  9.0818921262684771e-06  1.3067645204703020e-05  3.9453243166747720e-05  -7.4014498672422325e-05  4.4599744439296934e-05  4.2870860812328978e-05  1.7625409722453483e-05  5.1227495838700528e-06  1.2079114755894438e-06  2.4594598160742393e-07  4.4749026504938297e-08  7.4272031017735715e-09  1.1391371286520663e-09  1.6273439264324560e-10  2.1744832223246539e-11  2.7198223014427651e-12  3.1942404634777326e-13  6.9068609701867136e-14  -5.1936681723759211e-04  7.4682570742296144e-05  1.5671437567978881e-04  1.5117838940295473e-04  1.7399120221889795e-04  1.9756693161779198e-04  -4.1571737365697154e-04  6.3467226660054543e-04  3.9413959948381974e-04  1.2994649570166440e-04  3.1853974650143228e-05  6.4865831182401286e-06  1.1561311952087983e-06  1.8557373218606545e-07  2.7270004945722228e-08  3.7022685378799807e-09  4.6607269387056980e-10  5.4319357128145977e-11  5.8119433826219389e-12  5.6645686613851528e-13  9.2719996916061844e-14  -2.4723470554511655e-03  2.2022904422582877e-03  2.2952143204474232e-03  2.1282322881952180e-03  2.0890298053056816e-03  1.6516291431703690e-03  -6.5394820263587076e-04  7.3698876636663036e-03  3.2566522353634081e-03  8.5835896217960925e-04  1.7505662096238368e-04  3.0282360144411515e-05  4.6372223205791138e-06  6.4242689249833364e-07  8.1333852094857590e-08  9.4234414226887365e-09  9.9099704264155686e-10  9.2299071594715648e-11  7.1247831693512309e-12  3.6441149757112516e-13  -2.7595472120235448e-14  1.1644096068312588e-02  3.6083056116817995e-02  3.1623487179480242e-02  2.9562568171504662e-02  2.8528747869426302e-02  2.6155625131632082e-02  2.5014622118184025e-02  7.4343667930818716e-02  2.3746219522137367e-02  4.8938287175044285e-03  8.0834424422151531e-04  1.1529356639351280e-04  1.4640780119027895e-05  1.6712870712642808e-06  1.7032700368688382e-07  1.5018045122163509e-08  1.0369160090587834e-09  3.2061496106182811e-11  -5.8370138501597672e-12  -1.5674405200365164e-12  -4.9335620480267592e-13  5.2895171889284898e-01  4.8573591865721227e-01  4.2016795528034373e-01  4.0680730617015798e-01  4.0587840217113519e-01  4.1365987952425831e-01  4.6296436312242617e-01  6.4300612607985874e-01  1.4360819168516648e-01  2.2038225717419074e-02  2.7937101436079368e-03  3.0740587526159450e-04  2.9387436534135877e-05  2.3283385750336590e-06  1.2524651769467118e-07  -1.9463604554374672e-09  -1.8309697705432624e-09  -3.3999239593587246e-10  -4.6017699526082006e-11  -5.2148120471335692e-12  -9.6352281439018659e-13  7.9797581195145888e+00  5.1339492442423236e+00  4.6522940970086424e+00  4.5985534764915359e+00  4.5934014940589076e+00  4.5889257546662110e+00  4.5383116079398693e+00  4.0389145267990045e+00  5.7704530228042994e-01  5.8606313535142056e-02  4.7858685156773008e-03  2.8311874019462983e-04  2.6827122258720360e-06  -2.5570404664102569e-06  -5.2154840790930856e-07  -7.2319147408122660e-08  -8.1532945619579602e-09  -7.6337085428603281e-10  -5.5232712630969069e-11  -2.0064525608173786e-12  5.4559523672820454e-13  1.3239926427994504e+00  3.4488369578893285e-01  4.0970173356605505e-01  4.4457961469545598e-01  4.5096744524694937e-01  4.4952387058373477e-01  4.3078790227527852e-01  3.0923037434784062e-01  -2.0920751570897539e-01  -5.5654664769980391e-02  -9.0790941784760944e-03  -1.1935171559940728e-03  -1.3527520050568174e-04  -1.3347005525182187e-05  -1.1072080939249144e-06  -6.6722516820956799e-08  -4.8687137803819987e-10  6.7473831095543570e-10  1.3941777799891657e-10  2.0069096622574034e-11  4.6167396281556635e-12  1.5662999917561665e-01  -2.2248884743122789e-02  2.9984255855179751e-02  3.5071438856975626e-02  3.4077983255692078e-02  3.3000943319756414e-02  2.8829818810761635e-02  9.5709067711739291e-03  -4.4251614713348743e-02  2.3236877178439705e-03  2.6602579547395375e-03  6.9530383053846134e-04  1.2844509915600766e-04  1.9672906301580361e-05  2.6389408550301661e-06  3.1646994332474733e-07  3.3979955648286109e-08  3.2061325623324523e-09  2.5014524658838372e-10  1.2987597907373108e-11  -8.1526468524414294e-13  1.5827706384569169e-02  -9.7165336744370039e-03  4.0485175013728596e-03  2.8892087332210285e-03  2.3402375258433044e-03  2.1504602374787644e-03  1.4666877115469259e-03  -1.0151391608431077e-03  -5.5167975786117682e-03  2.3689856309897931e-03  4.0406784705500809e-04  -3.9206719330556014e-05  -3.1237503034465800e-05  -8.6999655677621398e-06  -1.7722196646877479e-06  -3.0217742854679948e-07  -4.5407210721008631e-08  -6.1572381042298500e-09  -7.6109497651627690e-10  -8.7227144059103681e-11  -1.7552621652386128e-11  1.3956678799424691e-03  -1.7633147574614256e-03  8.5112570301675147e-04  1.9083517044653773e-04  1.2688297558714046e-04  1.2099845032662387e-04  2.6136626937039445e-05  -2.5132144980113112e-04  -5.3184276379615234e-04  5.2634844769556557e-04  -4.0523816728482342e-05  -3.2558086024598322e-05  -4.5969101620211998e-06  3.9652447289911073e-07  3.5949015554127500e-07  1.0874850932676782e-07  2.4069697622403660e-08  4.4650885808893352e-09  7.3182518733666022e-10  1.1062074834630826e-10  2.9937717010141334e-11  1.0226852637161781e-04  -2.4685302762189658e-04  1.6882719398392989e-04  -9.6156912012721524e-06  2.6509551418288915e-06  5.6774817199039338e-06  -7.0678931772426417e-06  -3.4383527120655026e-05  -3.9693268009852878e-05  8.2226925598492175e-05  -2.6544614674020710e-05  -4.0065846399663466e-06  9.8710193831646282e-07  4.2103259209352619e-07  6.1237927066656989e-08  -2.6948972179815481e-09  -4.0368510587973699e-09  -1.3475154744531911e-09  -3.2213997366909672e-10  -6.5454385554785767e-11  -2.2853603866419757e-11  4.9815043860512032e-06  -2.9553814764854932e-05  2.8914577225492920e-05  -7.6691830691161923e-06  5.6207555902791627e-08  3.3019875505603103e-07  -1.4693773602205380e-06  -3.7460616471623842e-06  -1.7110239407762814e-06  1.0531985208334014e-05  -6.5010946440998363e-06  4.2676354770516710e-07  3.8973850075859101e-07  2.9930273066610481e-08  -1.4912678169577934e-08  -5.5122837618190422e-09  -8.7415522839281563e-10  -3.2768372478703787e-12  4.3569367655218740e-11  1.6808948864199480e-11  8.5913327188347618e-12  -1.1861984400078320e-07  -3.1011119209991604e-06  4.3506669857203157e-06  -2.0179333158986325e-06  2.3328967795100750e-07  3.6303869986442884e-08  -2.1404133906665537e-07  -3.4196227181864724e-07  1.1148582545431108e-07  1.1528129325650937e-06  -1.1696739273231507e-06  3.0033808893251281e-07  4.9583140327444938e-08  -1.4352807406564235e-08  -4.9516920964235412e-09  -2.5790482180560414e-10  2.0183534079254020e-10  7.2853677425585868e-11  1.2748766866768208e-11  5.9018247505483376e-13  -8.9749997035