<?xml version="1.0"?>
<VTKFile type="UnstructuredGrid"  version="0.1"  >
<UnstructuredGrid>
<Piece  NumberOfPoints="9261" NumberOfCells="48000">
<Points>
<DataArray  type="Float64"  NumberOfComponents="3"  format="ascii">0 0 0  0.015 0 0  0.03 0 0  0.045 0 0  0.06 0 0  0.075 0 0  0.09 0 0  0.105 0 0  0.12 0 0  0.135 0 0  0.15 0 0  0.165 0 0  0.18 0 0  0.195 0 0  0.21 0 0  0.225 0 0  0.24 0 0  0.255 0 0  0.27 0 0  0.285 0 0  0.3 0 0  0 0.015 0  0.015 0.015 0  0.03 0.015 0  0.045 0.015 0  0.06 0.015 0  0.075 0.015 0  0.09 0.015 0  0.105 0.015 0  0.12 0.015 0  0.135 0.015 0  0.15 0.015 0  0.165 0.015 0  0.18 0.015 0  0.195 0.015 0  0.21 0.015 0  0.225 0.015 0  0.24 0.015 0  0.255 0.015 0  0.27 0.015 0  0.285 0.015 0  0.3 0.015 0  0 0.03 0  0.015 0.03 0  0.03 0.03 0  0.045 0.03 0  0.06 0.03 0  0.075 0.03 0  0.09 0.03 0  0.105 0.03 0  0.12 0.03 0  0.135 0.03 0  0.15 0.03 0  0.165 0.03 0  0.18 0.03 0  0.195 0.03 0  0.21 0.03 0  0.225 0.03 0  0.24 0.03 0  0.255 0.03 0  0.27 0.03 0  0.285 0.03 0  0.3 0.03 0  0 0.045 0  0.015 0.045 0  0.03 0.045 0  0.045 0.045 0  0.06 0.045 0  0.075 0.045 0  0.09 0.045 0  0.105 0.045 0  0.12 0.045 0  0.135 0.045 0  0.15 0.045 0  0.165 0.045 0  0.18 0.045 0  0.195 0.045 0  0.21 0.045 0  0.225 0.045 0  0.24 0.045 0  0.255 0.045 0  0.27 0.045 0  0.285 0.045 0  0.3 0.045 0  0 0.06 0  0.015 0.06 0  0.03 0.06 0  0.045 0.06 0  0.06 0.06 0  0.075 0.06 0  0.09 0.06 0  0.105 0.06 0  0.12 0.06 0  0.135 0.06 0  0.15 0.06 0  0.165 0.06 0  0.18 0.06 0  0.195 0.06 0  0.21 0.06 0  0.225 0.06 0  0.24 0.06 0  0.255 0.06 0  0.27 0.06 0  0.285 0.06 0  0.3 0.06 0  0 0.075 0  0.015 0.075 0  0.03 0.075 0  0.045 0.075 0  0.06 0.075 0  0.075 0.075 0  0.09 0.075 0  0.105 0.075 0  0.12 0.075 0  0.135 0.075 0  0.15 0.075 0  0.165 0.075 0  0.18 0.075 0  0.195 0.075 0  0.21 0.075 0  0.225 0.075 0  0.24 0.075 0  0.255 0.075 0  0.27 0.075 0  0.285 0.075 0  0.3 0.075 0  0 0.09 0  0.015 0.09 0  0.03 0.09 0  0.045 0.09 0  0.06 0.09 0  0.075 0.09 0  0.09 0.09 0  0.105 0.09 0  0.12 0.09 0  0.135 0.09 0  0.15 0.09 0  0.165 0.09 0  0.18 0.09 0  0.195 0.09 0  0.21 0.09 0  0.225 0.09 0  0.24 0.09 0  0.255 0.09 0  0.27 0.09 0  0.285 0.09 0  0.3 0.09 0  0 0.105 0  0.015 0.105 0  0.03 0.105 0  0.045 0.105 0  0.06 0.105 0  0.075 0.105 0  0.09 0.105 0  0.105 0.105 0  0.12 0.105 0  0.135 0.105 0  0.15 0.105 0  0.165 0.105 0  0.18 0.105 0  0.195 0.105 0  0.21 0.105 0  0.225 0.105 0  0.24 0.105 0  0.255 0.105 0  0.27 0.105 0  0.285 0.105 0  0.3 0.105 0  0 0.12 0  0.015 0.12 0  0.03 0.12 0  0.045 0.12 0  0.06 0.12 0  0.075 0.12 0  0.09 0.12 0  0.105 0.12 0  0.12 0.12 0  0.135 0.12 0  0.15 0.12 0  0.165 0.12 0  0.18 0.12 0  0.195 0.12 0  0.21 0.12 0  0.225 0.12 0  0.24 0.12 0  0.255 0.12 0  0.27 0.12 0  0.285 0.12 0  0.3 0.12 0  0 0.135 0  0.015 0.135 0  0.03 0.135 0  0.045 0.135 0  0.06 0.135 0  0.075 0.135 0  0.09 0.135 0  0.105 0.135 0  0.12 0.135 0  0.135 0.135 0  0.15 0.135 0  0.165 0.135 0  0.18 0.135 0  0.195 0.135 0  0.21 0.135 0  0.225 0.135 0  0.24 0.135 0  0.255 0.135 0  0.27 0.135 0  0.285 0.135 0  0.3 0.135 0  0 0.15 0  0.015 0.15 0  0.03 0.15 0  0.045 0.15 0  0.06 0.15 0  0.075 0.15 0  0.09 0.15 0  0.105 0.15 0  0.12 0.15 0  0.135 0.15 0  0.15 0.15 0  0.165 0.15 0  0.18 0.15 0  0.195 0.15 0  0.21 0.15 0  0.225 0.15 0  0.24 0.15 0  0.255 0.15 0  0.27 0.15 0  0.285 0.15 0  0.3 0.15 0  0 0.165 0  0.015 0.165 0  0.03 0.165 0  0.045 0.165 0  0.06 0.165 0  0.075 0.165 0  0.09 0.165 0  0.105 0.165 0  0.12 0.165 0  0.135 0.165 0  0.15 0.165 0  0.165 0.165 0  0.18 0.165 0  0.195 0.165 0  0.21 0.165 0  0.225 0.165 0  0.24 0.165 0  0.255 0.165 0  0.27 0.165 0  0.285 0.165 0  0.3 0.165 0  0 0.18 0  0.015 0.18 0  0.03 0.18 0  0.045 0.18 0  0.06 0.18 0  0.075 0.18 0  0.09 0.18 0  0.105 0.18 0  0.12 0.18 0  0.135 0.18 0  0.15 0.18 0  0.165 0.18 0  0.18 0.18 0  0.195 0.18 0  0.21 0.18 0  0.225 0.18 0  0.24 0.18 0  0.255 0.18 0  0.27 0.18 0  0.285 0.18 0  0.3 0.18 0  0 0.195 0  0.015 0.195 0  0.03 0.195 0  0.045 0.195 0  0.06 0.195 0  0.075 0.195 0  0.09 0.195 0  0.105 0.195 0  0.12 0.195 0  0.135 0.195 0  0.15 0.195 0  0.165 0.195 0  0.18 0.195 0  0.195 0.195 0  0.21 0.195 0  0.225 0.195 0  0.24 0.195 0  0.255 0.195 0  0.27 0.195 0  0.285 0.195 0  0.3 0.195 0  0 0.21 0  0.015 0.21 0  0.03 0.21 0  0.045 0.21 0  0.06 0.21 0  0.075 0.21 0  0.09 0.21 0  0.105 0.21 0  0.12 0.21 0  0.135 0.21 0  0.15 0.21 0  0.165 0.21 0  0.18 0.21 0  0.195 0.21 0  0.21 0.21 0  0.225 0.21 0  0.24 0.21 0  0.255 0.21 0  0.27 0.21 0  0.285 0.21 0  0.3 0.21 0  0 0.225 0  0.015 0.225 0  0.03 0.225 0  0.045 0.225 0  0.06 0.225 0  0.075 0.225 0  0.09 0.225 0  0.105 0.225 0  0.12 0.225 0  0.135 0.225 0  0.15 0.225 0  0.165 0.225 0  0.18 0.225 0  0.195 0.225 0  0.21 0.225 0  0.225 0.225 0  0.24 0.225 0  0.255 0.225 0  0.27 0.225 0  0.285 0.225 0  0.3 0.225 0  0 0.24 0  0.015 0.24 0  0.03 0.24 0  0.045 0.24 0  0.06 0.24 0  0.075 0.24 0  0.09 0.24 0  0.105 0.24 0  0.12 0.24 0  0.135 0.24 0  0.15 0.24 0  0.165 0.24 0  0.18 0.24 0  0.195 0.24 0  0.21 0.24 0  0.225 0.24 0  0.24 0.24 0  0.255 0.24 0  0.27 0.24 0  0.285 0.24 0  0.3 0.24 0  0 0.255 0  0.015 0.255 0  0.03 0.255 0  0.045 0.255 0  0.06 0.255 0  0.075 0.255 0  0.09 0.255 0  0.105 0.255 0  0.12 0.255 0  0.135 0.255 0  0.15 0.255 0  0.165 0.255 0  0.18 0.255 0  0.195 0.255 0  0.21 0.255 0  0.225 0.255 0  0.24 0.255 0  0.255 0.255 0  0.27 0.255 0  0.285 0.255 0  0.3 0.255 0  0 0.27 0  0.015 0.27 0  0.03 0.27 0  0.045 0.27 0  0.06 0.27 0  0.075 0.27 0  0.09 0.27 0  0.105 0.27 0  0.12 0.27 0  0.135 0.27 0  0.15 0.27 0  0.165 0.27 0  0.18 0.27 0  0.195 0.27 0  0.21 0.27 0  0.225 0.27 0  0.24 0.27 0  0.255 0.27 0  0.27 0.27 0  0.285 0.27 0  0.3 0.27 0  0 0.285 0  0.015 0.285 0  0.03 0.285 0  0.045 0.285 0  0.06 0.285 0  0.075 0.285 0  0.09 0.285 0  0.105 0.285 0  0.12 0.285 0  0.135 0.285 0  0.15 0.285 0  0.165 0.285 0  0.18 0.285 0  0.195 0.285 0  0.21 0.285 0  0.225 0.285 0  0.24 0.285 0  0.255 0.285 0  0.27 0.285 0  0.285 0.285 0  0.3 0.285 0  0 0.3 0  0.015 0.3 0  0.03 0.3 0  0.045 0.3 0  0.06 0.3 0  0.075 0.3 0  0.09 0.3 0  0.105 0.3 0  0.12 0.3 0  0.135 0.3 0  0.15 0.3 0  0.165 0.3 0  0.18 0.3 0  0.195 0.3 0  0.21 0.3 0  0.225 0.3 0  0.24 0.3 0  0.255 0.3 0  0.27 0.3 0  0.285 0.3 0  0.3 0.3 0  0 0 0.00075  0.015 0 0.00075  0.03 0 0.00075  0.045 0 0.00075  0.06 0 0.00075  0.075 0 0.00075  0.09 0 0.00075  0.105 0 0.00075  0.12 0 0.00075  0.135 0 0.00075  0.15 0 0.00075  0.165 0 0.00075  0.18 0 0.00075  0.195 0 0.00075  0.21 0 0.00075  0.225 0 0.00075  0.24 0 0.00075  0.255 0 0.00075  0.27 0 0.00075  0.285 0 0.00075  0.3 0 0.00075  0 0.015 0.00075  0.015 0.015 0.00075  0.03 0.015 0.00075  0.045 0.015 0.00075  0.06 0.015 0.00075  0.075 0.015 0.00075  0.09 0.015 0.00075  0.105 0.015 0.00075  0.12 0.015 0.00075  0.135 0.015 0.00075  0.15 0.015 0.00075  0.165 0.015 0.00075  0.18 0.015 0.00075  0.195 0.015 0.00075  0.21 0.015 0.00075  0.225 0.015 0.00075  0.24 0.015 0.00075  0.255 0.015 0.00075  0.27 0.015 0.00075  0.285 0.015 0.00075  0.3 0.015 0.00075  0 0.03 0.00075  0.015 0.03 0.00075  0.03 0.03 0.00075  0.045 0.03 0.00075  0.06 0.03 0.00075  0.075 0.03 0.00075  0.09 0.03 0.00075  0.105 0.03 0.00075  0.12 0.03 0.00075  0.135 0.03 0.00075  0.15 0.03 0.00075  0.165 0.03 0.00075  0.18 0.03 0.00075  0.195 0.03 0.00075  0.21 0.03 0.00075  0.225 0.03 0.00075  0.24 0.03 0.00075  0.255 0.03 0.00075  0.27 0.03 0.00075  0.285 0.03 0.00075  0.3 0.03 0.00075  0 0.045 0.00075  0.015 0.045 0.00075  0.03 0.045 0.00075  0.045 0.045 0.00075  0.06 0.045 0.00075  0.075 0.045 0.00075  0.09 0.045 0.00075  0.105 0.045 0.00075  0.12 0.045 0.00075  0.135 0.045 0.00075  0.15 0.045 0.00075  0.165 0.045 0.00075  0.18 0.045 0.00075  0.195 0.045 0.00075  0.21 0.045 0.00075  0.225 0.045 0.00075  0.24 0.045 0.00075  0.255 0.045 0.00075  0.27 0.045 0.00075  0.285 0.045 0.00075  0.3 0.045 0.00075  0 0.06 0.00075  0.015 0.06 0.00075  0.03 0.06 0.00075  0.045 0.06 0.00075  0.06 0.06 0.00075  0.075 0.06 0.00075  0.09 0.06 0.00075  0.105 0.06 0.00075  0.12 0.06 0.00075  0.135 0.06 0.00075  0.15 0.06 0.00075  0.165 0.06 0.00075  0.18 0.06 0.00075  0.195 0.06 0.00075  0.21 0.06 0.00075  0.225 0.06 0.00075  0.24 0.06 0.00075  0.255 0.06 0.00075  0.27 0.06 0.00075  0.285 0.06 0.00075  0.3 0.06 0.00075  0 0.075 0.00075  0.015 0.075 0.00075  0.03 0.075 0.00075  0.045 0.075 0.00075  0.06 0.075 0.00075  0.075 0.075 0.00075  0.09 0.075 0.00075  0.105 0.075 0.00075  0.12 0.075 0.00075  0.135 0.075 0.00075  0.15 0.075 0.00075  0.165 0.075 0.00075  0.18 0.075 0.00075  0.195 0.075 0.00075  0.21 0.075 0.00075  0.225 0.075 0.00075  0.24 0.075 0.00075  0.255 0.075 0.00075  0.27 0.075 0.00075  0.285 0.075 0.00075  0.3 0.075 0.00075  0 0.09 0.00075  0.015 0.09 0.00075  0.03 0.09 0.00075  0.045 0.09 0.00075  0.06 0.09 0.00075  0.075 0.09 0.00075  0.09 0.09 0.00075  0.105 0.09 0.00075  0.12 0.09 0.00075  0.135 0.09 0.00075  0.15 0.09 0.00075  0.165 0.09 0.00075  0.18 0.09 0.00075  0.195 0.09 0.00075  0.21 0.09 0.00075  0.225 0.09 0.00075  0.24 0.09 0.00075  0.255 0.09 0.00075  0.27 0.09 0.00075  0.285 0.09 0.00075  0.3 0.09 0.00075  0 0.105 0.00075  0.015 0.105 0.00075  0.03 0.105 0.00075  0.045 0.105 0.00075  0.06 0.105 0.00075  0.075 0.105 0.00075  0.09 0.105 0.00075  0.105 0.105 0.00075  0.12 0.105 0.00075  0.135 0.105 0.00075  0.15 0.105 0.00075  0.165 0.105 0.00075  0.18 0.105 0.00075  0.195 0.105 0.00075  0.21 0.105 0.00075  0.225 0.105 0.00075  0.24 0.105 0.00075  0.255 0.105 0.00075  0.27 0.105 0.00075  0.285 0.105 0.00075  0.3 0.105 0.00075  0 0.12 0.00075  0.015 0.12 0.00075  0.03 0.12 0.00075  0.045 0.12 0.00075  0.06 0.12 0.00075  0.075 0.12 0.00075  0.09 0.12 0.00075  0.105 0.12 0.00075  0.12 0.12 0.00075  0.135 0.12 0.00075  0.15 0.12 0.00075  0.165 0.12 0.00075  0.18 0.12 0.00075  0.195 0.12 0.00075  0.21 0.12 0.00075  0.225 0.12 0.00075  0.24 0.12 0.00075  0.255 0.12 0.00075  0.27 0.12 0.00075  0.285 0.12 0.00075  0.3 0.12 0.00075  0 0.135 0.00075  0.015 0.135 0.00075  0.03 0.135 0.00075  0.045 0.135 0.00075  0.06 0.135 0.00075  0.075 0.135 0.00075  0.09 0.1
[...]
<PointData  Vectors="f_205"> 
<DataArray  type="Float64"  Name="f_205"  NumberOfComponents="3" format="ascii">-2.4231046976492479e+01 -4.7380415789680328e+01 -1.8084891438835722e+00  -2.0155328964482180e+01 -4.6032920541380939e+01 -1.8391152922592895e+00  -1.6084939703225782e+01 -4.4643734182444362e+01 -1.8457522160666866e+00  -1.2064385126174196e+01 -4.3164950934774822e+01 -1.8338675555760706e+00  -8.1394563948622327e+00 -4.1577652254080718e+01 -1.8084389810050945e+00  -4.3477501682329809e+00 -3.9880052322792913e+01 -1.7732853088376952e+00  -7.1653399708974663e-01 -3.8077452911286379e+01 -1.7307401789660586e+00  2.7346677312255596e+00 -3.6175861214489267e+01 -1.6816043381633734e+00  5.9897712435846735e+00 -3.4179611010993327e+01 -1.6254417530217802e+00  9.0323997659998465e+00 -3.2092266051047908e+01 -1.5611383922054358e+00  1.1844100942247712e+01 -2.9919427461320733e+01 -1.4875619549776429e+00  1.4404934683853091e+01 -2.7671864856480589e+01 -1.4041270692224808e+00  1.6695984104950242e+01 -2.5367674926016313e+01 -1.3111186335122580e+00  1.8702859217317506e+01 -2.3032836901615216e+01 -1.2097703780571176e+00  2.0419371404146702e+01 -2.0700206146335294e+01 -1.1022555927483975e+00  2.1851079671929302e+01 -1.8407181099176864e+01 -9.9178918279927764e-01  2.3018768622285226e+01 -1.6191815711004502e+01 -8.8290633945939423e-01  2.3961523046271701e+01 -1.4086425911055331e+01 -7.8177306892135667e-01  2.4737858857356734e+01 -1.2107578651599891e+01 -6.9629187908480594e-01  2.5422183208572566e+01 -1.0242507919022136e+01 -6.3565701564095700e-01  2.6092881363366789e+01 -8.4391857816497122e+00 -6.0917288587568141e-01  -2.5598666235812434e+01 -4.3316963032229850e+01 -1.7842368473665127e+00  -2.1544977962482943e+01 -4.2013536499318377e+01 -1.8212589456470130e+00  -1.7520480926737896e+01 -4.0709667656909538e+01 -1.8321679188068263e+00  -1.3567417931391788e+01 -3.9348248885835652e+01 -1.8218700111704584e+00  -9.7226805681527342e+00 -3.7901680140484842e+01 -1.7959580453585704e+00  -6.0161377014538475e+00 -3.6360928895612766e+01 -1.7589810712395901e+00  -2.4703548622422096e+00 -3.4726496804270553e+01 -1.7139032009943198e+00  8.9750282291440375e-01 -3.3002303874317583e+01 -1.6619486159994332e+00  4.0728601182716062e+00 -3.1192819284348499e+01 -1.6028756233827131e+00  7.0413479257544305e+00 -2.9302925226036315e+01 -1.5355758476802785e+00  9.7877287191756643e+00 -2.7339473824025262e+01 -1.4588102520660955e+00  1.2296418497571358e+01 -2.5313337610938689e+01 -1.3718650243564270e+00  1.4553312881456527e+01 -2.3240936306318389e+01 -1.2749584485857459e+00  1.6548275233131996e+01 -2.1144640903362255e+01 -1.1693751875918923e+00  1.8277692775634087e+01 -1.9051874244357268e+01 -1.0574768684302933e+00  1.9746861722079792e+01 -1.6992868231842955e+01 -9.4279835581387161e-01  2.0972250811150801e+01 -1.4996808846753268e+01 -8.3030673522401066e-01  2.1983535221159936e+01 -1.3085744004118304e+01 -7.2665605383698073e-01  2.2824735870176905e+01 -1.1265636747021786e+01 -6.4011292213579030e-01  2.3553744499160697e+01 -9.5145948882763314e+00 -5.7961775785120484e-01  2.4242145221712313e+01 -7.7690762614033755e+00 -5.4965051875395732e-01  -2.6936133129639472e+01 -3.9217780374028024e+01 -1.7585747245036345e+00  -2.2901440860307069e+01 -3.7984881547072732e+01 -1.7993503497667338e+00  -1.8900087724068818e+01 -3.6772489377830155e+01 -1.8143615063286223e+00  -1.4982028788132757e+01 -3.5527970853107099e+01 -1.8054983938224460e+00  -1.1183543368689628e+01 -3.4220392864443141e+01 -1.7787533116552712e+00  -7.5312946187861769e+00 -3.2835676091857685e+01 -1.7393763524345189e+00  -4.0443870033658706e+00 -3.1370077400624798e+01 -1.6909691645453646e+00  -7.3696979091762549e-01 -2.9825177983826435e+01 -1.6352305513142855e+00  2.3790235356297447e+00 -2.8205030477930755e+01 -1.5722175419920976e+00  5.2918056633045198e+00 -2.6515287123105548e+01 -1.5009719664890158e+00  7.9888677866007791e+00 -2.4763665599078383e+01 -1.4202969423725018e+00  1.0457428929214888e+01 -2.2960952172498075e+01 -1.3294594639162138e+00  1.2685905429890061e+01 -2.1121823210144662e+01 -1.2286525834102782e+00  1.4665866491097248e+01 -1.9264980458980492e+01 -1.1191913489708931e+00  1.6394027326972836e+01 -1.7412305884135659e+01 -1.0035814692551210e+00  1.7874180869904748e+01 -1.5586824959061181e+01 -8.8565751283963856e-01  1.9119270517815590e+01 -1.3809208681645343e+01 -7.7085362449867334e-01  2.0153721339527870e+01 -1.2092485778646427e+01 -6.6641882412632036e-01  2.1015726824155550e+01 -1.0434850863940440e+01 -5.8122490119727233e-01  2.1759364643296646e+01 -8.8109456453915911e+00 -5.2451398641701186e-01  2.2459782699604794e+01 -7.1621006057360361e+00 -4.9858262339257081e-01  -2.8184566533199519e+01 -3.5076369044011862e+01 -1.7347842216653018e+00  -2.4167289243939596e+01 -3.3944427223838694e+01 -1.7778934388476941e+00  -2.0180418965835656e+01 -3.2839384639455538e+01 -1.7955224337833202e+00  -1.6280999105930341e+01 -3.1717834777684168e+01 -1.7876734890151276e+00  -1.2508409231396065e+01 -3.0550801169840963e+01 -1.7600833202429975e+00  -8.8893484492833963e+00 -2.9322419263457039e+01 -1.7183226833394274e+00  -5.4414219307820337e+00 -2.8026351769851200e+01 -1.6664563051911236e+00  -2.1766372572199262e+00 -2.6662282668777589e+01 -1.6066479172288970e+00  8.9542815842753865e-01 -2.5233497280144821e+01 -1.5393631725435544e+00  3.7653888651661784e+00 -2.3745687138274437e+01 -1.4639652655002302e+00  6.4230763574953880e+00 -2.2206684840911656e+01 -1.3794665760957772e+00  8.8578090939018210e+00 -2.0626670229570468e+01 -1.2852201275457715e+00  1.1059584291611685e+01 -1.9018393178107619e+01 -1.1814041626994376e+00  1.3020726260550353e+01 -1.7397033296937625e+01 -1.0692806142356290e+00  1.4737656189207138e+01 -1.5779390232383269e+01 -9.5134766917999314e-01  1.6212793921530483e+01 -1.4182137424426614e+01 -8.3154862362023751e-01  1.7456882420746648e+01 -1.2618910410582281e+01 -7.1556885242768242e-01  1.8491912214808167e+01 -1.1096108352348654e+01 -6.1101644021196755e-01  1.9354370659053625e+01 -9.6076380872214049e+00 -5.2713854830413132e-01  2.0098648419766629e+01 -8.1292336484935568e+00 -4.7335884554245800e-01  2.0803688606206197e+01 -6.6137113470229485e+00 -4.5061709796501209e-01  -2.9307061506064532e+01 -3.0898207124243303e+01 -1.7146919058192396e+00  -2.5305228423949899e+01 -2.9892484833228252e+01 -1.7590413638658571e+00  -2.1329133141017529e+01 -2.8912098205386229e+01 -1.7779764883729032e+00  -1.7440757053700018e+01 -2.7923360451673695e+01 -1.7703660707004212e+00  -1.3682993814746531e+01 -2.6901686625873790e+01 -1.7416491207256322e+00  -1.0084147717097769e+01 -2.5831987085669120e+01 -1.6974632828128451e+00  -6.6618515819918551e+00 -2.4707037248755196e+01 -1.6421526296936524e+00  -3.4271091810055192e+00 -2.3525351177829741e+01 -1.5782655494371858e+00  -3.8790278786615040e-01 -2.2289374426376849e+01 -1.5066866198412643e+00  2.4482648538473120e+00 -2.1004287475990054e+01 -1.4271694801858299e+00  5.0731553970413801e+00 -1.9677365596283781e+01 -1.3390241319022853e+00  7.4778141256869368e+00 -1.8317687812941656e+01 -1.2417589060377567e+00  9.6534921104745628e+00 -1.6935946059443360e+01 -1.1355591167180656e+00  1.1593072971331038e+01 -1.5544099124478102e+01 -1.0215964229541723e+00  1.3292766533573289e+01 -1.4154612304457613e+01 -9.0227020813107073e-01  1.4754150042560441e+01 -1.2779033970975471e+01 -7.8150059779521597e-01  1.5986863553054347e+01 -1.1425740956248998e+01 -6.6506410697754059e-01  1.7012080837274858e+01 -1.0096843829918349e+01 -5.6074445949871010e-01  1.7866369472561370e+01 -8.7846767018648162e+00 -4.7796138408594258e-01  1.8605510096201449e+01 -7.4684798617821739e+00 -4.2613308714519527e-01  1.9310992547743531e+01 -6.1133916798134793e+00 -4.0531159871368300e-01  -3.0280440473252241e+01 -2.6692023632893299e+01 -1.6992694999941846e+00  -2.6291892388650403e+01 -2.5831473523062559e+01 -1.7440340402389203e+00  -2.2324676705196616e+01 -2.4991148230798611e+01 -1.7632929662899515e+00  -1.8443926812605515e+01 -2.4145930413238599e+01 -1.7552055949107763e+00  -1.4695461791550349e+01 -2.3276247209465829e+01 -1.7250064649045851e+00  -1.1109566848831729e+01 -2.2369156740193123e+01 -1.6783256031722888e+00  -7.7047163322446934e+00 -2.1417790269147584e+01 -1.6196683407816383e+00  -4.4917677484368461e+00 -2.0420184408618404e+01 -1.5518740174804191e+00  -1.4778380814561065e+00 -1.9378049478644712e+01 -1.4761944529264055e+00  1.3308904574584235e+00 -1.8295748084246725e+01 -1.3927609363669162e+00  3.9277030563409103e+00 -1.7179547518864517e+01 -1.3011956789753178e+00  6.3051070416682569e+00 -1.6037093580091192e+01 -1.2011889438859700e+00  8.4554920249770014e+00 -1.4876997041061534e+01 -1.0929546055067034e+00  1.0372366326167342e+01 -1.3708380003040656e+01 -9.7757440967794662e-01  1.2052017020334269e+01 -1.2540191120145844e+01 -8.5731728674699859e-01  1.3495712335825916e+01 -1.1380096136002942e+01 -7.3601370598694693e-01  1.4712728950662951e+01 -1.0232845818702705e+01 -6.1943625208997544e-01  1.5724222608395523e+01 -9.0981384696587337e+00 -5.1542689228344074e-01  1.6567432496233359e+01 -7.9685221508839561e+00 -4.3344314257111249e-01  1.7299412351033478e+01 -6.8275421153814166e+00 -3.8275983258116658e-01  1.8002921137280875e+01 -5.6511517203169079e+00 -3.6282228393052179e-01  -3.1090205298364687e+01 -2.2466188429556798e+01 -1.6890257929097983e+00  -2.7112817866161883e+01 -2.1764404841000701e+01 -1.7336163648832210e+00  -2.3153278193816025e+01 -2.1076665769933236e+01 -1.7525175498936685e+00  -1.9278680835252846e+01 -2.0384836813760320e+01 -1.7434247240626914e+00  -1.5537039097969735e+01 -1.9674111047809127e+01 -1.7114620499183306e+00  -1.1960444610914198e+01 -1.8934215078601873e+01 -1.6622562846723150e+00  -8.5684634487870213e+00 -1.8159343830529885e+01 -1.6004192537000053e+00  -5.3722686554272494e+00 -1.7347562387969500e+01 -1.5290043918734404e+00  -2.3786174090885019e+00 -1.6500012876145966e+01 -1.4495565452320809e+00  4.0717365295767100e-01 -1.5620126656930335e+01 -1.3625262687621886e+00  2.9795554349939222e+00 -1.4712933820234801e+01 -1.2678129518070955e+00  5.3322654580775790e+00 -1.3784491904622667e+01 -1.1652792748511289e+00  7.4587516270311767e+00 -1.2841406267526251e+01 -1.0551778605328646e+00  9.3532379475168810e+00 -1.1890362410690024e+01 -9.3851655364712905e-01  1.1012353248432424e+01 -1.0937542933270672e+01 -8.1743848168159527e-01  1.2437459667273121e+01 -9.9877951645692242e+00 -6.9566339655198439e-01  1.3637911343052759e+01 -9.0435369256432381e+00 -5.7891703996204502e-01  1.4635137403806159e+01 -8.1033859468452896e+00 -4.7504924769491419e-01  1.5467074723392846e+01 -7.1611801385590850e+00 -3.9351088898979691e-01  1.6191518599413357e+01 -6.2046040035946266e+00 -3.4333157095233319e-01  1.6891591752033374e+01 -5.2185141450171280e+00 -3.2353878485304272e-01  -3.1727138575033610e+01 -1.8227558139769677e+01 -1.6841794066655951e+00  -2.7758992425640244e+01 -1.7694095383804179e+01 -1.7281937551992341e+00  -2.3806239991801050e+01 -1.7168556291274648e+01 -1.7462876856535769e+00  -1.9937234100119497e+01 -1.6638351271186302e+01 -1.7358432718815737e+00  -1.6201557121221811e+01 -1.6092891229409222e+01 -1.7019458814373447e+00  -1.2632741734206007e+01 -1.5524624248092490e+01 -1.6502458677847489e+00  -9.2513696077769811e+00 -1.4929122737619789e+01 -1.5854427871575778e+00  -6.0690730155968717e+00 -1.4304783898354128e+01 -1.5107509910416268e+00  -3.0925144350614748e+00 -1.3652338453546735e+01 -1.4279374386409449e+00  -3.2644855007428797e-01 -1.2974291764961329e+01 -1.3377001220155795e+00  2.2244601513304523e+00 -1.2274373875588157e+01 -1.2401583542759409e+00  4.5549693797927988e+00 -1.1557041350290923e+01 -1.1353152219173925e+00  6.6594861702512258e+00 -1.0827039965587627e+01 -1.0234559525610862e+00  8.5329846536829770e+00 -1.0088993011408407e+01 -9.0552333518435912e-01  1.0172596053914937e+01 -9.3469377412646111e+00 -7.8354217995997588e-01  1.1580012356455924e+01 -8.6037323394489125e+00 -6.6111551912368738e-01  1.2764945212756794e+01 -7.8603299716529538e+00 -5.4389539153145405e-01  1.3749110162262477e+01 -7.1150515791880160e+00 -4.3973360894480257e-01  1.4570913443363162e+01 -6.3636512397900900e+00 -3.5820601854850331e-01  1.5288177829826910e+01 -5.5972620460939586e+00 -3.0799014995681800e-01  1.5983883961659222e+01 -4.8083445797598747e+00 -2.8784306606054405e-01  -3.2185100964683969e+01 -1.3981509626759721e+01 -1.6847477222846639e+00  -2.8224607456321184e+01 -1.3622984176451080e+01 -1.7279123419614464e+00  -2.4277983741431534e+01 -1.3266651136631419e+01 -1.7449028998808602e+00  -2.0414466284168533e+01 -1.2904410980091203e+01 -1.7328899049466171e+00  -1.6684732554627161e+01 -1.2529345797729620e+01 -1.6969689367636642e+00  -1.3123363500833655e+01 -1.2136478676337806e+01 -1.6428409261684842e+00  -9.7517295964417325e+00 -1.1722837920012903e+01 -1.5752904409990536e+00  -6.5818694133959790e+00 -1.1287295250742829e+01 -1.4976598525050526e+00  -3.6204346009578150e+00 -1.0830278224201265e+01 -1.4118836317206791e+00  -8.7178682916238637e-01 -1.0353416607516014e+01 -1.3188450742131317e+00  1.6600928327270943e+00 -9.8591681292351598e+00 -1.2188300216592740e+00  3.9708000779389403e+00 -9.3504598473262437e+00 -1.1119499953113032e+00  6.0555826212366215e+00 -8.8303636073777536e+00 -9.9851423400920636e-01  7.9101359367555419e+00 -8.3017919151543715e+00 -8.7940213614206120e-01  9.5321433151375690e+00 -7.7671663493676251e+00 -7.5650787426445276e-01  1.0923713233259052e+01 -7.2280099791747832e+00 -6.3327648640728429e-01  1.2095019578420102e+01 -6.6844273380955848e+00 -5.1524133981264053e-01  1.3068261222590131e+01 -6.1345557346043860e+00 -4.1003547831353915e-01  1.3882038716412548e+01 -5.5760382013150673e+00 -3.2783689646379627e-01  1.4592867684195587e+01 -5.0026658090372313e+00 -2.7691904276080592e-01  1.5283549160685183e+01 -4.4143739364382393e+00 -2.5604182519299501e-01  -3.2459812520664535e+01 -9.7324643625465441e+00 -1.6906291331928658e+00  -2.8505763244977320e+01 -9.5532870982060221e+00 -1.7327428562733520e+00  -2.4564835632403220e+01 -9.3709253557691827e+00 -1.7484155483756347e+00  -2.0706963222375663e+01 -9.1811280387787058e+00 -1.7346830432867992e+00  -1.6983573664470921e+01 -8.9802429078576793e+00 -1.6966812084725829e+00  -1.3429938423481991e+01 -8.7656804278870091e+00 -1.6401801984044502e+00  -1.0067941585867004e+01 -8.5358833637089830e+00 -1.5700506203953268e+00  -6.9098775424064591e+00 -8.2902245930121410e+00 -1.4897423995088395e+00  -3.9623617092271366e+00 -8.0288679873102389e+00 -1.4013192513445110e+00  -1.2294379956288604e+00 -7.7525987819566318e+00 -1.3058042845949753e+00  1.2854575602351492e+00 -7.4626347956551040e+00 -1.2036119382895896e+00  3.5786010946806557e+00 -7.1604383086260315e+00 -1.0949459526545129e+00  5.6459473814968284e+00 -6.8475460779278530e+00 -9.8015244704312621e-01  7.4838349829152753e+00 -6.5254175292762673e+00 -8.6008417429428075e-01  9.0904832331075767e+00 -6.1952783504415718e+00 -7.3654123525371551e-01  1.0468448367914871e+01 -5.8579288666142757e+00 -6.1279351030371909e-01  1.1628217297079326e+01 -5.5134790224819765e+00 -4.9409575401005895e-01  1.2591860532619753e+01 -5.1612044291746164e+00 -3.8784912067301475e-01  1.3401536642993111e+01 -4.7967277150008316e+00 -3.0393536516647546e-01  1.4107114968544225e+01 -4.4174303020555170e+00 -2.5064095483512400e-01  1.4792138728828695e+01 -4.0307263432323843e+00 -2.2849868193565553e-01  -3.2548396264928172e+01 -5.4844213739534116e+00 -1.7017055688669378e+00  -2.8599893130851537e+01 -5.4871951659010403e+00 -1.7425965677968980e+00  -2.4664418801102553e+01 -5.4816365320294462e+00 -1.7567693881442714e+00  -2.0812499145231026e+01 -5.4670535188676777e+00 -1.7411873318021314e+00  -1.7096049256304045e+01 -5.4428432580969845e+00 -1.7010422723529521e+00  -1.3550717319523708e+01 -5.4086570419365483e+00 -1.6421816959211026e+00  -1.0198624875024205e+01 -5.3642629885310376e+00 -1.5695599065058734e+00  -7.0521355770198593e+00 -5.3094847983313898e+00 -1.4867175683573046e+00  -4.1177481884022393e+00 -5.2441943601942382e+00 -1.3958171335383414e+00  -1.3992058419711804e+00 -5.1683160505376149e+00 -1.2979836069498629e+00  1.1005100143676141e+00 -5.0818208626920889e+00 -1.1937250730736686e+00  3.3782221855383794e+00 -4.9847119042734267e+00 -1.0833170429996177e+00  5.4304413717932425e+00 -4.8770140516730933e+00 -9.6714663892446939e-01  7.2539916995416007e+00 -4.7587757007661340e+00 -8.4607811053447235e-01  8.8474626652155131e+00 -4.6300775262995204e+00 -7.2190511003886648e-01  1.0213706575086778e+01 -4.4910379084075931e+00 -5.9788831467884351e-01  1.1363539431257049e+01 -4.3418151769704441e+00 -4.7925945598742536e-01  1.2320318534979984e+01 -4.1826455340615274e+00 -3.7336159852095030e-01  1.3126105944430366e+01 -4.0143288443298877e+00 -2.9036518621167851e-01  1.3829463942464656e+01 -3.8367084923091372e+00 -2.3033014543310693e-01  1.4508047805015929e+01 -3.6519478406712169e+00 -2.0591152180610711e-01  -3.2449343276586148e+01 -1.2412248130318149e+00 -1.7179353771517896e+00  -2.8505617596137419e+01 -1.4269113719669833e+00 -1.7574391996184937e+00  -2.4575443487661619e+01 -1.5992351884622888e+00 -1.7699421353370852e+00  -2.0729844553219305e+01 -1.7610779000498953e+00 -1.7523864418410329e+00  -1.7020988109286378e+01 -1.9148655382061397e+00 -1.7100279957235844e+00  -1.3484612278807802e+01 -2.0624147992113699e+00 -1.6487920483061544e+00  -1.0142815965998389e+01 -2.2047149865356293e+00 -1.5737102819512669e+00  -7.0078458152377090e+00 -2.3419366985401662e+00 -1.4883983545520392e+00  -4.0859869664429285e+00 -2.4735755392448127e+00 -1.3950916422706325e+00  -1.3806659511522206e+00 -2.5986385077212919e+00 -1.2949836868912294e+00  1.1055482688673530e+00 -2.7158211076467773e+00 -1.1886399462293733e+00  3.3699553539206804e+00 -2.8236635930155285e+00 -1.0763723893064443e+00  5.4095525071242694e+00 -2.9206995639589777e+00 -9.5857408777362907e-01  7.2215942310176118e+00 -3.0056155436233811e+00 -8.3607740650128126e-01  8.8049808495234512e+00 -3.0774320949554981e+00 -7.1060032618860680e-01  1.0162689748227860e+01 -3.1357069077631969e+00 -5.8527663780367889e-01  1.1305331831800318e+01 -3.1807462571841354e+00 -4.6513777472964807e-01  1.2255443455369777e+01 -3.2138898011590715e+00 -3.5731699088109842e-01  1.3051088348528229e+01 -3.2375253100704287e+00 -2.7065295589244098e-01  1.3747561909849212e+01 -3.2590035320479904e+00 -2.1370960393824825e-01  1.4420578455878397e+01 -3.2765925872815003e+00 -1.8794730495536610e-01  -3.2162537842087069e+01 2.9934107524994586e+00 -1.7393860797801834e+00  -2.8222736194254541e+01 2.6254765260671844e+00 -1.7773390503094133e+00  -2.4297667608457520e+01 2.2759229459590760e+00 -1.7880092384361483e+00  -2.0458723349312891e+01 1.9379527766758422e+00 -1.7683640095442228e+00  -1.6758065287771121e+01 1.6059443704183671e+00 -1.7237304758675469e+00  -1.3231240374098798e+01 1.2759324844337745e+00 -1.6601093737188486e+00  -9.9000907126026707e+00 9.4583607258224400e-01 -1.5826025222164339e+00  -6.7765925575896633e+00 6.1530426964211560e-01 -1.4948882198299869e+00  -3.8667491517140951e+00 2.8536881237416112e-01 -1.3992574337812267e+00  -1.1736730370636066e+00 -4.1949099265455668e-02 -1.2969520267018539e+00  1.3004284834636037e+00 -3.6400060704616732e-01 -1.1885758395692991e+00  3.5532548241127775e+00 -6.7782472802391602e-01 -1.0744646400817055e+00  5.5821978704890860e+00 -9.8044167478507938e-01 -9.5501627117614363e-01  7.3848275277163307e+00 -1.2691615751486602e+00 -8.3104752358349598e-01  8.9601844725586197e+00 -1.5419390547795619e+00 -7.0424584757978126e-01  1.0311107545235027e+01 -1.7977830115052225e+00 -5.7771671147644377e-01  1.1447712649445389e+01 -2.0372003382177271e+00 -4.5650001192809286e-01  1.2391679092821683e+01 -2.2626165374251719e+00 -3.4779848847600958e-01  1.3180383948329682e+01 -2.4786480731596128e+00 -2.6060216852527968e-01  1.3869899608824952e+01 -2.6927371521266554e+00 -2.0384855287623993e-01  1.4539658532427962e+01 -2.9078114746716297e+00 -1.7699366566929656e-01  -3.1689187937567713e+01 7.2158688203362260e+00 -1.7661941401774459e+00  -2.7752217777711735e+01 6.6681238846965494e+00 -1.8024