<?xml version="1.0"?>
<VTKFile type="UnstructuredGrid"  version="0.1"  >
<UnstructuredGrid>
<Piece  NumberOfPoints="9261" NumberOfCells="48000">
<Points>
<DataArray  type="Float64"  NumberOfComponents="3"  format="ascii">0 0 0  0.015 0 0  0.03 0 0  0.045 0 0  0.06 0 0  0.075 0 0  0.09 0 0  0.105 0 0  0.12 0 0  0.135 0 0  0.15 0 0  0.165 0 0  0.18 0 0  0.195 0 0  0.21 0 0  0.225 0 0  0.24 0 0  0.255 0 0  0.27 0 0  0.285 0 0  0.3 0 0  0 0.015 0  0.015 0.015 0  0.03 0.015 0  0.045 0.015 0  0.06 0.015 0  0.075 0.015 0  0.09 0.015 0  0.105 0.015 0  0.12 0.015 0  0.135 0.015 0  0.15 0.015 0  0.165 0.015 0  0.18 0.015 0  0.195 0.015 0  0.21 0.015 0  0.225 0.015 0  0.24 0.015 0  0.255 0.015 0  0.27 0.015 0  0.285 0.015 0  0.3 0.015 0  0 0.03 0  0.015 0.03 0  0.03 0.03 0  0.045 0.03 0  0.06 0.03 0  0.075 0.03 0  0.09 0.03 0  0.105 0.03 0  0.12 0.03 0  0.135 0.03 0  0.15 0.03 0  0.165 0.03 0  0.18 0.03 0  0.195 0.03 0  0.21 0.03 0  0.225 0.03 0  0.24 0.03 0  0.255 0.03 0  0.27 0.03 0  0.285 0.03 0  0.3 0.03 0  0 0.045 0  0.015 0.045 0  0.03 0.045 0  0.045 0.045 0  0.06 0.045 0  0.075 0.045 0  0.09 0.045 0  0.105 0.045 0  0.12 0.045 0  0.135 0.045 0  0.15 0.045 0  0.165 0.045 0  0.18 0.045 0  0.195 0.045 0  0.21 0.045 0  0.225 0.045 0  0.24 0.045 0  0.255 0.045 0  0.27 0.045 0  0.285 0.045 0  0.3 0.045 0  0 0.06 0  0.015 0.06 0  0.03 0.06 0  0.045 0.06 0  0.06 0.06 0  0.075 0.06 0  0.09 0.06 0  0.105 0.06 0  0.12 0.06 0  0.135 0.06 0  0.15 0.06 0  0.165 0.06 0  0.18 0.06 0  0.195 0.06 0  0.21 0.06 0  0.225 0.06 0  0.24 0.06 0  0.255 0.06 0  0.27 0.06 0  0.285 0.06 0  0.3 0.06 0  0 0.075 0  0.015 0.075 0  0.03 0.075 0  0.045 0.075 0  0.06 0.075 0  0.075 0.075 0  0.09 0.075 0  0.105 0.075 0  0.12 0.075 0  0.135 0.075 0  0.15 0.075 0  0.165 0.075 0  0.18 0.075 0  0.195 0.075 0  0.21 0.075 0  0.225 0.075 0  0.24 0.075 0  0.255 0.075 0  0.27 0.075 0  0.285 0.075 0  0.3 0.075 0  0 0.09 0  0.015 0.09 0  0.03 0.09 0  0.045 0.09 0  0.06 0.09 0  0.075 0.09 0  0.09 0.09 0  0.105 0.09 0  0.12 0.09 0  0.135 0.09 0  0.15 0.09 0  0.165 0.09 0  0.18 0.09 0  0.195 0.09 0  0.21 0.09 0  0.225 0.09 0  0.24 0.09 0  0.255 0.09 0  0.27 0.09 0  0.285 0.09 0  0.3 0.09 0  0 0.105 0  0.015 0.105 0  0.03 0.105 0  0.045 0.105 0  0.06 0.105 0  0.075 0.105 0  0.09 0.105 0  0.105 0.105 0  0.12 0.105 0  0.135 0.105 0  0.15 0.105 0  0.165 0.105 0  0.18 0.105 0  0.195 0.105 0  0.21 0.105 0  0.225 0.105 0  0.24 0.105 0  0.255 0.105 0  0.27 0.105 0  0.285 0.105 0  0.3 0.105 0  0 0.12 0  0.015 0.12 0  0.03 0.12 0  0.045 0.12 0  0.06 0.12 0  0.075 0.12 0  0.09 0.12 0  0.105 0.12 0  0.12 0.12 0  0.135 0.12 0  0.15 0.12 0  0.165 0.12 0  0.18 0.12 0  0.195 0.12 0  0.21 0.12 0  0.225 0.12 0  0.24 0.12 0  0.255 0.12 0  0.27 0.12 0  0.285 0.12 0  0.3 0.12 0  0 0.135 0  0.015 0.135 0  0.03 0.135 0  0.045 0.135 0  0.06 0.135 0  0.075 0.135 0  0.09 0.135 0  0.105 0.135 0  0.12 0.135 0  0.135 0.135 0  0.15 0.135 0  0.165 0.135 0  0.18 0.135 0  0.195 0.135 0  0.21 0.135 0  0.225 0.135 0  0.24 0.135 0  0.255 0.135 0  0.27 0.135 0  0.285 0.135 0  0.3 0.135 0  0 0.15 0  0.015 0.15 0  0.03 0.15 0  0.045 0.15 0  0.06 0.15 0  0.075 0.15 0  0.09 0.15 0  0.105 0.15 0  0.12 0.15 0  0.135 0.15 0  0.15 0.15 0  0.165 0.15 0  0.18 0.15 0  0.195 0.15 0  0.21 0.15 0  0.225 0.15 0  0.24 0.15 0  0.255 0.15 0  0.27 0.15 0  0.285 0.15 0  0.3 0.15 0  0 0.165 0  0.015 0.165 0  0.03 0.165 0  0.045 0.165 0  0.06 0.165 0  0.075 0.165 0  0.09 0.165 0  0.105 0.165 0  0.12 0.165 0  0.135 0.165 0  0.15 0.165 0  0.165 0.165 0  0.18 0.165 0  0.195 0.165 0  0.21 0.165 0  0.225 0.165 0  0.24 0.165 0  0.255 0.165 0  0.27 0.165 0  0.285 0.165 0  0.3 0.165 0  0 0.18 0  0.015 0.18 0  0.03 0.18 0  0.045 0.18 0  0.06 0.18 0  0.075 0.18 0  0.09 0.18 0  0.105 0.18 0  0.12 0.18 0  0.135 0.18 0  0.15 0.18 0  0.165 0.18 0  0.18 0.18 0  0.195 0.18 0  0.21 0.18 0  0.225 0.18 0  0.24 0.18 0  0.255 0.18 0  0.27 0.18 0  0.285 0.18 0  0.3 0.18 0  0 0.195 0  0.015 0.195 0  0.03 0.195 0  0.045 0.195 0  0.06 0.195 0  0.075 0.195 0  0.09 0.195 0  0.105 0.195 0  0.12 0.195 0  0.135 0.195 0  0.15 0.195 0  0.165 0.195 0  0.18 0.195 0  0.195 0.195 0  0.21 0.195 0  0.225 0.195 0  0.24 0.195 0  0.255 0.195 0  0.27 0.195 0  0.285 0.195 0  0.3 0.195 0  0 0.21 0  0.015 0.21 0  0.03 0.21 0  0.045 0.21 0  0.06 0.21 0  0.075 0.21 0  0.09 0.21 0  0.105 0.21 0  0.12 0.21 0  0.135 0.21 0  0.15 0.21 0  0.165 0.21 0  0.18 0.21 0  0.195 0.21 0  0.21 0.21 0  0.225 0.21 0  0.24 0.21 0  0.255 0.21 0  0.27 0.21 0  0.285 0.21 0  0.3 0.21 0  0 0.225 0  0.015 0.225 0  0.03 0.225 0  0.045 0.225 0  0.06 0.225 0  0.075 0.225 0  0.09 0.225 0  0.105 0.225 0  0.12 0.225 0  0.135 0.225 0  0.15 0.225 0  0.165 0.225 0  0.18 0.225 0  0.195 0.225 0  0.21 0.225 0  0.225 0.225 0  0.24 0.225 0  0.255 0.225 0  0.27 0.225 0  0.285 0.225 0  0.3 0.225 0  0 0.24 0  0.015 0.24 0  0.03 0.24 0  0.045 0.24 0  0.06 0.24 0  0.075 0.24 0  0.09 0.24 0  0.105 0.24 0  0.12 0.24 0  0.135 0.24 0  0.15 0.24 0  0.165 0.24 0  0.18 0.24 0  0.195 0.24 0  0.21 0.24 0  0.225 0.24 0  0.24 0.24 0  0.255 0.24 0  0.27 0.24 0  0.285 0.24 0  0.3 0.24 0  0 0.255 0  0.015 0.255 0  0.03 0.255 0  0.045 0.255 0  0.06 0.255 0  0.075 0.255 0  0.09 0.255 0  0.105 0.255 0  0.12 0.255 0  0.135 0.255 0  0.15 0.255 0  0.165 0.255 0  0.18 0.255 0  0.195 0.255 0  0.21 0.255 0  0.225 0.255 0  0.24 0.255 0  0.255 0.255 0  0.27 0.255 0  0.285 0.255 0  0.3 0.255 0  0 0.27 0  0.015 0.27 0  0.03 0.27 0  0.045 0.27 0  0.06 0.27 0  0.075 0.27 0  0.09 0.27 0  0.105 0.27 0  0.12 0.27 0  0.135 0.27 0  0.15 0.27 0  0.165 0.27 0  0.18 0.27 0  0.195 0.27 0  0.21 0.27 0  0.225 0.27 0  0.24 0.27 0  0.255 0.27 0  0.27 0.27 0  0.285 0.27 0  0.3 0.27 0  0 0.285 0  0.015 0.285 0  0.03 0.285 0  0.045 0.285 0  0.06 0.285 0  0.075 0.285 0  0.09 0.285 0  0.105 0.285 0  0.12 0.285 0  0.135 0.285 0  0.15 0.285 0  0.165 0.285 0  0.18 0.285 0  0.195 0.285 0  0.21 0.285 0  0.225 0.285 0  0.24 0.285 0  0.255 0.285 0  0.27 0.285 0  0.285 0.285 0  0.3 0.285 0  0 0.3 0  0.015 0.3 0  0.03 0.3 0  0.045 0.3 0  0.06 0.3 0  0.075 0.3 0  0.09 0.3 0  0.105 0.3 0  0.12 0.3 0  0.135 0.3 0  0.15 0.3 0  0.165 0.3 0  0.18 0.3 0  0.195 0.3 0  0.21 0.3 0  0.225 0.3 0  0.24 0.3 0  0.255 0.3 0  0.27 0.3 0  0.285 0.3 0  0.3 0.3 0  0 0 0.00075  0.015 0 0.00075  0.03 0 0.00075  0.045 0 0.00075  0.06 0 0.00075  0.075 0 0.00075  0.09 0 0.00075  0.105 0 0.00075  0.12 0 0.00075  0.135 0 0.00075  0.15 0 0.00075  0.165 0 0.00075  0.18 0 0.00075  0.195 0 0.00075  0.21 0 0.00075  0.225 0 0.00075  0.24 0 0.00075  0.255 0 0.00075  0.27 0 0.00075  0.285 0 0.00075  0.3 0 0.00075  0 0.015 0.00075  0.015 0.015 0.00075  0.03 0.015 0.00075  0.045 0.015 0.00075  0.06 0.015 0.00075  0.075 0.015 0.00075  0.09 0.015 0.00075  0.105 0.015 0.00075  0.12 0.015 0.00075  0.135 0.015 0.00075  0.15 0.015 0.00075  0.165 0.015 0.00075  0.18 0.015 0.00075  0.195 0.015 0.00075  0.21 0.015 0.00075  0.225 0.015 0.00075  0.24 0.015 0.00075  0.255 0.015 0.00075  0.27 0.015 0.00075  0.285 0.015 0.00075  0.3 0.015 0.00075  0 0.03 0.00075  0.015 0.03 0.00075  0.03 0.03 0.00075  0.045 0.03 0.00075  0.06 0.03 0.00075  0.075 0.03 0.00075  0.09 0.03 0.00075  0.105 0.03 0.00075  0.12 0.03 0.00075  0.135 0.03 0.00075  0.15 0.03 0.00075  0.165 0.03 0.00075  0.18 0.03 0.00075  0.195 0.03 0.00075  0.21 0.03 0.00075  0.225 0.03 0.00075  0.24 0.03 0.00075  0.255 0.03 0.00075  0.27 0.03 0.00075  0.285 0.03 0.00075  0.3 0.03 0.00075  0 0.045 0.00075  0.015 0.045 0.00075  0.03 0.045 0.00075  0.045 0.045 0.00075  0.06 0.045 0.00075  0.075 0.045 0.00075  0.09 0.045 0.00075  0.105 0.045 0.00075  0.12 0.045 0.00075  0.135 0.045 0.00075  0.15 0.045 0.00075  0.165 0.045 0.00075  0.18 0.045 0.00075  0.195 0.045 0.00075  0.21 0.045 0.00075  0.225 0.045 0.00075  0.24 0.045 0.00075  0.255 0.045 0.00075  0.27 0.045 0.00075  0.285 0.045 0.00075  0.3 0.045 0.00075  0 0.06 0.00075  0.015 0.06 0.00075  0.03 0.06 0.00075  0.045 0.06 0.00075  0.06 0.06 0.00075  0.075 0.06 0.00075  0.09 0.06 0.00075  0.105 0.06 0.00075  0.12 0.06 0.00075  0.135 0.06 0.00075  0.15 0.06 0.00075  0.165 0.06 0.00075  0.18 0.06 0.00075  0.195 0.06 0.00075  0.21 0.06 0.00075  0.225 0.06 0.00075  0.24 0.06 0.00075  0.255 0.06 0.00075  0.27 0.06 0.00075  0.285 0.06 0.00075  0.3 0.06 0.00075  0 0.075 0.00075  0.015 0.075 0.00075  0.03 0.075 0.00075  0.045 0.075 0.00075  0.06 0.075 0.00075  0.075 0.075 0.00075  0.09 0.075 0.00075  0.105 0.075 0.00075  0.12 0.075 0.00075  0.135 0.075 0.00075  0.15 0.075 0.00075  0.165 0.075 0.00075  0.18 0.075 0.00075  0.195 0.075 0.00075  0.21 0.075 0.00075  0.225 0.075 0.00075  0.24 0.075 0.00075  0.255 0.075 0.00075  0.27 0.075 0.00075  0.285 0.075 0.00075  0.3 0.075 0.00075  0 0.09 0.00075  0.015 0.09 0.00075  0.03 0.09 0.00075  0.045 0.09 0.00075  0.06 0.09 0.00075  0.075 0.09 0.00075  0.09 0.09 0.00075  0.105 0.09 0.00075  0.12 0.09 0.00075  0.135 0.09 0.00075  0.15 0.09 0.00075  0.165 0.09 0.00075  0.18 0.09 0.00075  0.195 0.09 0.00075  0.21 0.09 0.00075  0.225 0.09 0.00075  0.24 0.09 0.00075  0.255 0.09 0.00075  0.27 0.09 0.00075  0.285 0.09 0.00075  0.3 0.09 0.00075  0 0.105 0.00075  0.015 0.105 0.00075  0.03 0.105 0.00075  0.045 0.105 0.00075  0.06 0.105 0.00075  0.075 0.105 0.00075  0.09 0.105 0.00075  0.105 0.105 0.00075  0.12 0.105 0.00075  0.135 0.105 0.00075  0.15 0.105 0.00075  0.165 0.105 0.00075  0.18 0.105 0.00075  0.195 0.105 0.00075  0.21 0.105 0.00075  0.225 0.105 0.00075  0.24 0.105 0.00075  0.255 0.105 0.00075  0.27 0.105 0.00075  0.285 0.105 0.00075  0.3 0.105 0.00075  0 0.12 0.00075  0.015 0.12 0.00075  0.03 0.12 0.00075  0.045 0.12 0.00075  0.06 0.12 0.00075  0.075 0.12 0.00075  0.09 0.12 0.00075  0.105 0.12 0.00075  0.12 0.12 0.00075  0.135 0.12 0.00075  0.15 0.12 0.00075  0.165 0.12 0.00075  0.18 0.12 0.00075  0.195 0.12 0.00075  0.21 0.12 0.00075  0.225 0.12 0.00075  0.24 0.12 0.00075  0.255 0.12 0.00075  0.27 0.12 0.00075  0.285 0.12 0.00075  0.3 0.12 0.00075  0 0.135 0.00075  0.015 0.135 0.00075  0.03 0.135 0.00075  0.045 0.135 0.00075  0.06 0.135 0.00075  0.075 0.135 0.00075  0.09 0.1
[...]
<PointData  Vectors="f_205"> 
<DataArray  type="Float64"  Name="f_205"  NumberOfComponents="3" format="ascii">-2.4223802598378025e+01 -4.7268421910561926e+01 -1.8155437942605215e+00  -2.0160351963656751e+01 -4.5931372158693982e+01 -1.8463265112610383e+00  -1.6100919631312891e+01 -4.4554240108145891e+01 -1.8535615764477733e+00  -1.2088712991943160e+01 -4.3088377433443547e+01 -1.8424526247393389e+00  -8.1691784224673434e+00 -4.1513475393923777e+01 -1.8177285208450391e+00  -4.3805283201778149e+00 -3.9826503227329191e+01 -1.7830378002380134e+00  -7.5126379481802152e-01 -3.8032167153427054e+01 -1.7406570604657199e+00  2.6977207645730132e+00 -3.6136694211732042e+01 -1.6914407595028005e+00  5.9492745663881772e+00 -3.4145332447429567e+01 -1.6350873288235945e+00  8.9865410750099901e+00 -3.2062946824930606e+01 -1.5706493438155933e+00  1.1791246246137899e+01 -2.9896453725516746e+01 -1.4971366847400365e+00  1.4344149120046833e+01 -2.7657645925893036e+01 -1.4140388472575842e+00  1.6627298058410673e+01 -2.5365215996183750e+01 -1.3216435116328171e+00  1.8627310876225700e+01 -2.3045356382651445e+01 -1.2211520209681408e+00  2.0338966857572412e+01 -2.0730866391822726e+01 -1.1147189004933662e+00  2.1768786271884682e+01 -1.8458846070254882e+01 -1.0055691898522139e+00  2.2938497161475372e+01 -1.6266688574620677e+01 -8.9823493315791003e-01  2.3887887211159590e+01 -1.4185548168858055e+01 -7.9878946300014675e-01  2.4675495712708205e+01 -1.2230432020474842e+01 -7.1490175287644031e-01  2.5374654332246614e+01 -1.0387193999085317e+01 -6.5542330519340897e-01  2.6061499256212564e+01 -8.6035442725852302e+00 -6.2934626207550470e-01  -2.5581140144545998e+01 -4.3216923351453914e+01 -1.7893310899194073e+00  -2.1539487377982695e+01 -4.1923095045550937e+01 -1.8264425578523400e+00  -1.7525712181700886e+01 -4.0629835942154791e+01 -1.8379492903804480e+00  -1.3581156422128174e+01 -3.9279684397567237e+01 -1.8285036507062891e+00  -9.7425253427872960e+00 -3.7844070882435453e+01 -1.8034018400726644e+00  -6.0401576014344318e+00 -3.6313017155105165e+01 -1.7669797239112988e+00  -2.4975000850915023e+00 -3.4686520117350895e+01 -1.7221183675840319e+00  8.6731864777550904e-01 -3.2968597783877527e+01 -1.6700877442886124e+00  4.0389770016646924e+00 -3.1164356030299420e+01 -1.6107864659645292e+00  7.0027715765213170e+00 -2.9279640646593045e+01 -1.5432873829973390e+00  9.7435950369093032e+00 -2.7322329347761862e+01 -1.4665126710847878e+00  1.2246368794308934e+01 -2.5304156356970559e+01 -1.3798418236193837e+00  1.4497695481924238e+01 -2.3242117633052718e+01 -1.2835085279458787e+00  1.6488189232728587e+01 -2.1158863710567012e+01 -1.1787695515467880e+00  1.8214968305509387e+01 -1.9081837112044951e+01 -1.0679668005198766e+00  1.9684058827376219e+01 -1.7041029260191014e+01 -9.5464396784849448e-01  2.0912651692946334e+01 -1.5065059680744085e+01 -8.4376496833425796e-01  2.1930987720255068e+01 -1.3175038154756061e+01 -7.4188710021631776e-01  2.2783193432388941e+01 -1.1375749195656228e+01 -6.5702727720185961e-01  2.3526491040618581e+01 -9.6443443265206312e+00 -5.9775706842106502e-01  2.4230802719274976e+01 -7.9172882518366734e+00 -5.6829331644364112e-01  -2.6909628659465117e+01 -3.9129604614152640e+01 -1.7616687481675142e+00  -2.2887043614063430e+01 -3.7905234687159584e+01 -1.8025227924515781e+00  -1.8896616224510492e+01 -3.6702126032321324e+01 -1.8181617739519012e+00  -1.4987330526948874e+01 -3.5467326442579527e+01 -1.8102454694883703e+00  -1.1195300128206663e+01 -3.4169276344387555e+01 -1.7844316246595164e+00  -7.5476187365144449e+00 -3.2793250653895427e+01 -1.7457236371376674e+00  -4.0641567081256467e+00 -3.1335129819384747e+01 -1.6976207919934416e+00  -7.5987164890158054e-01 -2.9796520467786088e+01 -1.6418604059936874e+00  2.3526936236556808e+00 -2.8181879463173587e+01 -1.5786383556823131e+00  5.2614848746322069e+00 -2.6497514655605375e+01 -1.5071783391660678e+00  7.9540974092798944e+00 -2.4751884315627418e+01 -1.4264482750547689e+00  1.0418147181377433e+01 -2.2956451791945721e+01 -1.3358174818607695e+00  1.2642602046227021e+01 -2.1126410269615139e+01 -1.2355090846455397e+00  1.4619619128169884e+01 -1.9280774298702323e+01 -1.1268275716376028e+00  1.6346503034426384e+01 -1.7441515742219586e+01 -1.0122746313175457e+00  1.7827672085335955e+01 -1.5631500618568122e+01 -8.9570389239347259e-01  1.9076736047487021e+01 -1.3870954975137760e+01 -7.8254757660300345e-01  2.0118693004232817e+01 -1.2172188162489348e+01 -6.7994679610668318e-01  2.0991917134380291e+01 -1.0532527229744714e+01 -5.9649702328291998e-01  2.1749938134039589e+01 -8.9259384470329071e+00 -5.4103709914844389e-01  2.2466307781947911e+01 -7.2936291711450485e+00 -5.1559198390664507e-01  -2.8150452922796227e+01 -3.4999836656000348e+01 -1.7358241815100979e+00  -2.4145449661592110e+01 -3.3875274186044798e+01 -1.7790274138345670e+00  -2.0169744259662444e+01 -3.2778221869689716e+01 -1.7973315737392783e+00  -1.6279341383267628e+01 -3.1664976269337341e+01 -1.7905120570591480e+00  -1.2513391135532414e+01 -3.0506131929415236e+01 -1.7639651745353297e+00  -8.8989859228172143e+00 -2.9285401155143159e+01 -1.7229986069964114e+00  -5.4544537602304546e+00 -2.7996187757115468e+01 -1.6715609892452588e+00  -2.1925555835557060e+00 -2.6638169786401221e+01 -1.6118428538127130e+00  8.7657035605954903e-01 -2.5214875625326641e+01 -1.5444350624688272e+00  3.7432852266323522e+00 -2.3732419905764154e+01 -1.4688670108701674e+00  6.3974846263594394e+00 -2.2199144496489122e+01 -1.3843042383262985e+00  8.8287948074670624e+00 -2.0625736317830892e+01 -1.2902025622655362e+00  1.1027651590419689e+01 -1.9025379935180695e+01 -1.1867861401119282e+00  1.2986862671120276e+01 -1.7413562886572411e+01 -1.0753326325238817e+00  1.4703366494804749e+01 -1.5807218722001426e+01 -9.5836272217111407e-01  1.6180178163239859e+01 -1.4222939343077318e+01 -8.3985632580634362e-01  1.7428715254653227e+01 -1.2674038673296518e+01 -7.2550164969512965e-01  1.8471578618448547e+01 -1.1166388553579004e+01 -6.2279325621721016e-01  1.9345480926643877e+01 -9.6932494937380476e+00 -5.4068728979592429e-01  2.0104308185254059e+01 -8.2298502711754207e+00 -4.8818795615865274e-01  2.0825409680824791e+01 -6.7286493921156474e+00 -4.6594505384857843e-01  -2.9266540302400042e+01 -3.0833043193293815e+01 -1.7136364484989726e+00  -2.5277181434467973e+01 -2.9833579142984565e+01 -1.7581042647316243e+00  -2.1312464005794851e+01 -2.8859928407450269e+01 -1.7777661366847628e+00  -1.7433287026669095e+01 -2.7878162042666425e+01 -1.7712616755164774e+00  -1.3682256014420565e+01 -2.6863398021402997e+01 -1.7436883811030410e+00  -1.0088027866865575e+01 -2.5800270126438846e+01 -1.7004160197843310e+00  -6.6689325188893580e+00 -2.4681383623659588e+01 -1.6456650718011432e+00  -3.4367060273314181e+00 -2.3505239104534457e+01 -1.5819995885898721e+00  -3.9987979759300263e-01 -2.2274426171955891e+01 -1.5104119685248156e+00  2.4337761798100801e+00 -2.0994392255055505e+01 -1.4307999584581508e+00  5.0560358628881055e+00 -1.9672754475102561e+01 -1.3426078184205137e+00  7.4581677707294123e+00 -1.8318960447904811e+01 -1.2454411980835394e+00  9.6317677322473703e+00 -1.6944049760916958e+01 -1.1395443814974309e+00  1.1570128975286545e+01 -1.5560256481995058e+01 -1.0261317934367327e+00  1.3269944355857934e+01 -1.4180193677639560e+01 -9.0765444689025909e-01  1.4733393625683789e+01 -1.2815384938580479e+01 -7.8808883293801213e-01  1.5970823242848935e+01 -1.1473987891343322e+01 -6.7322015163598248e-01  1.7004055482801654e+01 -1.0157746128684252e+01 -5.7071798473357771e-01  1.7869904025843400e+01 -8.8584996094999919e+00 -4.8970799134493775e-01  1.8623689674882378e+01 -7.5551398896389674e+00 -4.3919214097615245e-01  1.9345319103862884e+01 -6.2121970018582120e+00 -4.1890399669164707e-01  -3.0234534633992151e+01 -2.6637991646780755e+01 -1.6960861965788097e+00  -2.6258672717440135e+01 -2.5782638406509061e+01 -1.7409937150864943e+00  -2.2303026494207849e+01 -2.4947837435415188e+01 -1.7610268710333437e+00  -1.8431613751032064e+01 -2.4108307173963599e+01 -1.7541129381821787e+00  -1.4689923282409712e+01 -2.3244278807770222e+01 -1.7251435904803254e+00  -1.1108561133590561e+01 -2.2342633402324008e+01 -1.6794793915376660e+00  -7.7066802357102508e+00 -2.1396394964135137e+01 -1.6214985859402613e+00  -4.4958610524130114e+00 -2.0403590607276580e+01 -1.5540480010204460e+00  -1.4837719672329810e+00 -1.9366019720103992e+01 -1.4784720694357796e+00  1.3231134262689259e+00 -1.8288215733530723e+01 -1.3950255404517420e+00  3.9180389227402048e+00 -1.7176675799749894e+01 -1.3034459585700529e+00  6.2936580147634702e+00 -1.6039309792518690e+01 -1.2035131576004585e+00  8.4426258999908157e+00 -1.4884995385310356e+01 -1.0955086867440580e+00  1.0358804856990410e+01 -1.3723082136330753e+01 -9.8057892131254643e-01  1.2038947688853845e+01 -1.2562656813174851e+01 -8.6106900698608169e-01  1.3484947073933991e+01 -1.1411393096347913e+01 -7.4088185132867757e-01  1.4706825467330795e+01 -1.0273892894078621e+01 -6.2580019196074133e-01  1.5726421135078972e+01 -9.1496199303608829e+00 -5.2355214288521323e-01  1.6581206708404974e+01 -8.0307249359952397e+00 -4.4331036316230954e-01  1.7327859133424532e+01 -6.9006671511167577e+00 -3.9397366868684053e-01  1.8047570166512568e+01 -5.7344638259818463e+00 -3.7461680735633895e-01  -3.1039811631888401e+01 -2.2423158465855050e+01 -1.6836838333851480e+00  -2.7075329171232340e+01 -2.1725553348649591e+01 -1.7284381516489318e+00  -2.3127543008072173e+01 -2.1042160418109255e+01 -1.7481524293533837e+00  -1.9262400813691773e+01 -2.0354765532632221e+01 -1.7402881604593767e+00  -1.5527556097552051e+01 -1.9648447640407124e+01 -1.7096242926342640e+00  -1.1955400850596762e+01 -1.8912827752143883e+01 -1.6615167510100834e+00  -8.5661690078039161e+00 -1.8142038993174989e+01 -1.6004485527028427e+00  -5.3717539599584381e+00 -1.7334145795243785e+01 -1.5294757082430035e+00  -2.3794722636824024e+00 -1.6490351478097821e+01 -1.4502252904088984e+00  4.0504239553875326e-01 -1.5614202305095356e+01 -1.3632563967292710e+00  2.9761515392960560e+00 -1.4710886620161673e+01 -1.2685695162811297e+00  5.3276746008530678e+00 -1.3786650796094126e+01 -1.1661103964427399e+00  7.4532621564581190e+00 -1.2848298854336244e+01 -1.0562045217600142e+00  9.3474512163038987e+00 -1.1902692656035697e+01 -9.3993858473874980e-01  1.1007326274805408e+01 -1.0956130781920734e+01 -8.1954696544195071e-01  1.2434894749808524e+01 -1.0013488267614163e+01 -6.9883015640558743e-01  1.3640297050928083e+01 -9.0770757277042051e+00 -5.8351307495389515e-01  1.4645702672087047e+01 -8.1453748071790582e+00 -4.8131838606484267e-01  1.5489200542484955e+01 -7.2118358437424499e+00 -4.0142073020472807e-01  1.6228352589612289e+01 -6.2646183576934353e+00 -3.5261890081520481e-01  1.6944680673493171e+01 -5.2870424896556161e+00 -3.3346118943002090e-01  -3.1673106535122233e+01 -1.8195545535209444e+01 -1.6766478541563545e+00  -2.7718088339905922e+01 -1.7665246871475489e+01 -1.7208407855761849e+00  -2.3777273686087867e+01 -1.7142892935580029e+01 -1.7397760681750547e+00  -1.9917836266552595e+01 -1.6615888403210288e+01 -1.7306012002639415e+00  -1.6188977644466490e+01 -1.6073595039792348e+01 -1.6980529662454262e+00  -1.2624519899860463e+01 -1.5508408414437486e+01 -1.6475088842559993e+00  -9.2457093975073033e+00 -1.4915872923360155e+01 -1.5835385568547111e+00  -6.0649016829989293e+00 -1.4294394728315655e+01 -1.5093565293820643e+00  -3.0893294865459779e+00 -1.3644751437116476e+01 -1.4268065150386589e+00  -3.2408820260309867e-01 -1.2969529264307408e+01 -1.3366868961111971e+00  2.2260291708339168e+00 -1.2272568492512621e+01 -1.2392106784238830e+00  4.5558128072974222e+00 -1.1558458955115025e+01 -1.1344621107110060e+00  6.6598261479632130e+00 -1.0832090046517452e+01 -1.0228054031730471e+00  8.5333285233965270e+00 -1.0098217697689904e+01 -9.0527346051158863e-01  1.0173902541226596e+01 -9.3609763374022332e+00 -7.8399027037707414e-01  1.1583908825385363e+01 -8.6232660180102148e+00 -6.6263594579823148e-01  1.2773828318851027e+01 -7.8860156159585282e+00 -5.4684008122822270e-01  1.3766299897432527e+01 -7.1474645230317941e+00 -4.4427143071079528e-01  1.4599735497969686e+01 -6.4027470671361391e+00 -3.6411404119983509e-01  1.5331959488702701e+01 -5.6446184686424070e+00 -3.1527051302225972e-01  1.6044043716602264e+01 -4.8627379470401344e+00 -2.9579889183902014e-01  -3.2128322994542344e+01 -1.3960672600482274e+01 -1.6750015586580262e+00  -2.8181172880137090e+01 -1.3604260317461073e+01 -1.7183534215177134e+00  -2.4246667197962932e+01 -1.3249952566625003e+01 -1.7362037919095721e+00  -2.0392830106140654e+01 -1.2889693881503817e+01 -1.7254881635792583e+00  -1.6669942559133997e+01 -1.2516565635275686e+01 -1.6909493173219003e+00  -1.3112870171756374e+01 -1.2125578537533187e+01 -1.6380124898994008e+00  -9.7436501138944021e+00 -1.1713758816949971e+01 -1.5713309024030067e+00  -6.5750506450020607e+00 -1.1279995561181606e+01 -1.4942458282701137e+00  -3.6143054038734608e+00 -1.0824753812710101e+01 -1.4087659190535473e+00  -8.6613700334332444e-01 -1.0349718609765453e+01 -1.3158711009228041e+00  1.6653145421907787e+00 -9.8574184197858781e+00 -1.2159382058298647e+00  3.9756403923865529e+00 -9.3508633197764475e+00 -1.1091618807554315e+00  6.0602108018436232e+00 -8.8332137204553405e+00 -9.9594005145755049e-01  7.9149872905303322e+00 -8.3074659674186222e+00 -8.7726011279321980e-01  9.5381092573669637e+00 -7.7761139470794962e+00 -7.5513676919327455e-01  1.0932384918399809e+01 -7.2407439996484522e+00 -6.3310036668608427e-01  1.2108709626494049e+01 -6.7015730759240757e+00 -5.1661794902240399e-01  1.3090234353671098e+01 -6.1570118229592916e+00 -4.1323255894987271e-01  1.3915739068089950e+01 -5.6035233667229010e+00 -3.3191349844406665e-01  1.4642661689737283e+01 -5.0379065366772364e+00 -2.8226258313763303e-01  1.5350176483560698e+01 -4.4548931412664734e+00 -2.6195272524874336e-01  -3.2401298395220195e+01 -9.7230512056631859e+00 -1.6786575420827072e+00  -2.8460777972684845e+01 -9.5448739712089932e+00 -1.7209632178715295e+00  -2.4532129730107211e+01 -9.3633643663948050e+00 -1.7375084851625942e+00  -2.0684042683288936e+01 -9.1743371294822094e+00 -1.7250928029710919e+00  -1.6967534631907082e+01 -8.9741732700846821e+00 -1.6884947418831300e+00  -1.3418159281238639e+01 -8.7603026248614047e+00 -1.6332053680254448e+00  -1.0058470896840541e+01 -8.5311878002234209e+00 -1.5639620842132265e+00  -6.9015001124820534e+00 -8.2862273432209825e+00 -1.4842124741852851e+00  -3.9544539374312837e+00 -8.0256162791318708e+00 -1.3960926029781013e+00  -1.2217518131393592e+00 -7.7501745600890457e+00 -1.3007193533342447e+00  1.2929903192751153e+00 -7.4611567880630130e+00 -1.1985951040086642e+00  3.5860182073077014e+00 -7.1600620323503241e+00 -1.0900053272984778e+00  5.6533827408736386e+00 -6.8484589521381478e+00 -9.7538751094552423e-01  7.4916657238967534e+00 -6.5278258633149280e+00 -8.5571273039316587e-01  9.0995293515764430e+00 -6.1993874722804412e+00 -7.3292708260186068e-01  1.0480226410744089e+01 -5.8639263752945618e+00 -6.1043870364993735e-01  1.1645079031073779e+01 -5.5215724396896890e+00 -4.9351776296220551e-01  1.2617598306179826e+01 -5.1716019032242464e+00 -3.8939970264368218e-01  1.3436456771498712e+01 -4.8125801934849708e+00 -3.0677888853370372e-01  1.4162056693937549e+01 -4.4405958000983201e+00 -2.5515102113097238e-01  1.4865840754754538e+01 -4.0561644442440912e+00 -2.3269794778231725e-01  -3.2489294353090933e+01 -5.4866866801722232e+00 -1.6875125513684930e+00  -2.8554453663070408e+01 -5.4892818336837044e+00 -1.7286003228086453e+00  -2.4631384739447718e+01 -5.4833737684490176e+00 -1.7436583694856063e+00  -2.0789341220336993e+01 -5.4683402889147299e+00 -1.7294109133560440e+00  -1.7079815512850995e+01 -5.4436365301628644e+00 -1.6906886817206286e+00  -1.3538734904665569e+01 -5.4089605855257776e+00 -1.6330570548252736e+00  -1.0188893187034834e+01 -5.3641211198940475e+00 -1.5613355821540247e+00  -7.0433945307585653e+00 -5.3089768471385028e+00 -1.4790619517941195e+00  -4.1093350153005481e+00 -5.2434274049477461e+00 -1.3884702389735111e+00  -1.3908412634780638e+00 -5.1674164941281360e+00 -1.2907776566229703e+00  1.1089147961305272e+00 -5.0809267310406376e+00 -1.1865775801431842e+00  3.3867141175462563e+00 -4.9839667972109458e+00 -1.0762233955783429e+00  5.4391549477343943e+00 -4.8765617738405069e+00 -9.6018771279754789e-01  7.2633015917641863e+00 -4.7587536110434998e+00 -8.3944297239473842e-01  8.8581833938101813e+00 -4.6306075228151249e+00 -7.1591135970532072e-01  1.0227300625023902e+01 -4.4922140314384267e+00 -5.9296596615180830e-01  1.1382181797122760e+01 -4.3436854262198974e+00 -4.7584327127177983e-01  1.2346643240208577e+01 -4.1851632203381302e+00 -3.7172870512423739e-01  1.3160763484372728e+01 -4.0168725194502661e+00 -2.8920937390945112e-01  1.3885350686452378e+01 -3.8396463073491334e+00 -2.3793319885015118e-01  1.4589208454429746e+01 -3.6565879020707666e+00 -2.0996781581745277e-01  -3.2390896616413990e+01 -1.2553650684384050e+00 -1.7015290576474482e+00  -2.8460908613660976e+01 -1.4396415821433046e+00 -1.7412378599794458e+00  -2.4543223504617210e+01 -1.6103695993690339e+00 -1.7546417559524106e+00  -2.0707573352126968e+01 -1.7705058032820524e+00 -1.7384405174451611e+00  -1.7005690671340460e+01 -1.9225571889243434e+00 -1.6975262206374655e+00  -1.3473587854981620e+01 -2.0684136847370906e+00 -1.6375400169058543e+00  -1.0134035645302726e+01 -2.2091254799676019e+00 -1.5633782353399959e+00  -7.0000228464363428e+00 -2.3449068506809745e+00 -1.4786541797153463e+00  -4.0784352041522514e+00 -2.4752760375978120e+00 -1.3856760887110835e+00  -1.3730888817930516e+00 -2.5992411102493804e+00 -1.2857311509382627e+00  1.1132461035685026e+00 -2.7154803856041516e+00 -1.1794718470647332e+00  3.3778116110467091e+00 -2.8225043776094290e+00 -1.0672906620643070e+00  5.4176708213438696e+00 -2.9188102180472435e+00 -9.4967079509439534e-01  7.2302913850106085e+00 -3.0030452362774653e+00 -8.2756126926975071e-01  8.8149837175736376e+00 -3.0741887362902878e+00 -7.0282434176664232e-01  1.0175359361400348e+01 -3.1317486003105026e+00 -5.7873479855853516e-01  1.1322838727079240e+01 -3.1759587774772733e+00 -4.6038912654148034e-01  1.2280775916243156e+01 -3.2079410894286453e+00 -3.5477502035873071e-01  1.3088160547793452e+01 -3.2298301469075588e+00 -2.7028268996566118e-01  1.3801607357802785e+01 -3.2442862828494143e+00 -2.1508778728977537e-01  1.4497283614500814e+01 -3.2567362882735451e+00 -1.8831864808225360e-01  -3.2106011744382158e+01 2.9672601604536619e+00 -1.7207647061962590e+00  -2.8179977304743126e+01 2.6020074667180753e+00 -1.7589343577950922e+00  -2.4267444807806267e+01 2.2553555239310792e+00 -1.7705230572860107e+00  -2.0438504511021293e+01 1.9204090649819265e+00 -1.7522527329419462e+00  -1.6744873901934167e+01 1.5914367539109093e+00 -1.7090848978916815e+00  -1.3222368201508170e+01 1.2643707985804065e+00 -1.6467349581929407e+00  -9.8934977079381934e+00 9.3704763856410178e-01 -1.5701692881282823e+00  -6.7709781389541268e+00 6.0906521225521204e-01 -1.4830647863573754e+00  -3.8614116526769027e+00 2.8144202789281936e-01 -1.3877867741365897e+00  -1.1683009168395342e+00 -4.3776061590133496e-02 -1.2856722991960150e+00  1.3059418869939237e+00 -3.6388401463809572e-01 -1.1774135237841354e+00  3.5589512107168715e+00 -6.7584330344720389e-01 -1.0634275745263833e+00  5.5881763016193027e+00 -9.7658612672674072e-01 -9.4420227467586637e-01  7.3913946562355362e+00 -1.2633329105587641e+00 -8.2066840871144475e-01  8.9680627753399342e+00 -1.5339508200628533e+00 -6.9464873691266016e-01  1.0321682919218377e+01 -1.7873588794753483e+00 -5.6936672918989306e-01  1.1463231744710010e+01 -2.0239516410496750e+00 -4.4987880040848316e-01  1.2415258133424807e+01 -2.2459676214403941e+00 -3.4318677172823669e-01  1.3215671489753806e+01 -2.4576696325159717e+00 -2.5777933666026748e-01  1.3920462794065843e+01 -2.6651027188253353e+00 -2.0197622085864558e-01  1.4607215541457688e+01 -2.8760096447762802e+00 -1.7443391447747902e-01  -3.1635828587688600e+01 7.1775801167767996e+00 -1.7453398365753219e+00  -2.7712630190758471e+01 6.6338308753917437e+00 -1.7817