<?xml version="1.0"?>
<VTKFile type="UnstructuredGrid"  version="0.1"  >
<UnstructuredGrid>
<Piece  NumberOfPoints="9261" NumberOfCells="48000">
<Points>
<DataArray  type="Float64"  NumberOfComponents="3"  format="ascii">0 0 0  0.015 0 0  0.03 0 0  0.045 0 0  0.06 0 0  0.075 0 0  0.09 0 0  0.105 0 0  0.12 0 0  0.135 0 0  0.15 0 0  0.165 0 0  0.18 0 0  0.195 0 0  0.21 0 0  0.225 0 0  0.24 0 0  0.255 0 0  0.27 0 0  0.285 0 0  0.3 0 0  0 0.015 0  0.015 0.015 0  0.03 0.015 0  0.045 0.015 0  0.06 0.015 0  0.075 0.015 0  0.09 0.015 0  0.105 0.015 0  0.12 0.015 0  0.135 0.015 0  0.15 0.015 0  0.165 0.015 0  0.18 0.015 0  0.195 0.015 0  0.21 0.015 0  0.225 0.015 0  0.24 0.015 0  0.255 0.015 0  0.27 0.015 0  0.285 0.015 0  0.3 0.015 0  0 0.03 0  0.015 0.03 0  0.03 0.03 0  0.045 0.03 0  0.06 0.03 0  0.075 0.03 0  0.09 0.03 0  0.105 0.03 0  0.12 0.03 0  0.135 0.03 0  0.15 0.03 0  0.165 0.03 0  0.18 0.03 0  0.195 0.03 0  0.21 0.03 0  0.225 0.03 0  0.24 0.03 0  0.255 0.03 0  0.27 0.03 0  0.285 0.03 0  0.3 0.03 0  0 0.045 0  0.015 0.045 0  0.03 0.045 0  0.045 0.045 0  0.06 0.045 0  0.075 0.045 0  0.09 0.045 0  0.105 0.045 0  0.12 0.045 0  0.135 0.045 0  0.15 0.045 0  0.165 0.045 0  0.18 0.045 0  0.195 0.045 0  0.21 0.045 0  0.225 0.045 0  0.24 0.045 0  0.255 0.045 0  0.27 0.045 0  0.285 0.045 0  0.3 0.045 0  0 0.06 0  0.015 0.06 0  0.03 0.06 0  0.045 0.06 0  0.06 0.06 0  0.075 0.06 0  0.09 0.06 0  0.105 0.06 0  0.12 0.06 0  0.135 0.06 0  0.15 0.06 0  0.165 0.06 0  0.18 0.06 0  0.195 0.06 0  0.21 0.06 0  0.225 0.06 0  0.24 0.06 0  0.255 0.06 0  0.27 0.06 0  0.285 0.06 0  0.3 0.06 0  0 0.075 0  0.015 0.075 0  0.03 0.075 0  0.045 0.075 0  0.06 0.075 0  0.075 0.075 0  0.09 0.075 0  0.105 0.075 0  0.12 0.075 0  0.135 0.075 0  0.15 0.075 0  0.165 0.075 0  0.18 0.075 0  0.195 0.075 0  0.21 0.075 0  0.225 0.075 0  0.24 0.075 0  0.255 0.075 0  0.27 0.075 0  0.285 0.075 0  0.3 0.075 0  0 0.09 0  0.015 0.09 0  0.03 0.09 0  0.045 0.09 0  0.06 0.09 0  0.075 0.09 0  0.09 0.09 0  0.105 0.09 0  0.12 0.09 0  0.135 0.09 0  0.15 0.09 0  0.165 0.09 0  0.18 0.09 0  0.195 0.09 0  0.21 0.09 0  0.225 0.09 0  0.24 0.09 0  0.255 0.09 0  0.27 0.09 0  0.285 0.09 0  0.3 0.09 0  0 0.105 0  0.015 0.105 0  0.03 0.105 0  0.045 0.105 0  0.06 0.105 0  0.075 0.105 0  0.09 0.105 0  0.105 0.105 0  0.12 0.105 0  0.135 0.105 0  0.15 0.105 0  0.165 0.105 0  0.18 0.105 0  0.195 0.105 0  0.21 0.105 0  0.225 0.105 0  0.24 0.105 0  0.255 0.105 0  0.27 0.105 0  0.285 0.105 0  0.3 0.105 0  0 0.12 0  0.015 0.12 0  0.03 0.12 0  0.045 0.12 0  0.06 0.12 0  0.075 0.12 0  0.09 0.12 0  0.105 0.12 0  0.12 0.12 0  0.135 0.12 0  0.15 0.12 0  0.165 0.12 0  0.18 0.12 0  0.195 0.12 0  0.21 0.12 0  0.225 0.12 0  0.24 0.12 0  0.255 0.12 0  0.27 0.12 0  0.285 0.12 0  0.3 0.12 0  0 0.135 0  0.015 0.135 0  0.03 0.135 0  0.045 0.135 0  0.06 0.135 0  0.075 0.135 0  0.09 0.135 0  0.105 0.135 0  0.12 0.135 0  0.135 0.135 0  0.15 0.135 0  0.165 0.135 0  0.18 0.135 0  0.195 0.135 0  0.21 0.135 0  0.225 0.135 0  0.24 0.135 0  0.255 0.135 0  0.27 0.135 0  0.285 0.135 0  0.3 0.135 0  0 0.15 0  0.015 0.15 0  0.03 0.15 0  0.045 0.15 0  0.06 0.15 0  0.075 0.15 0  0.09 0.15 0  0.105 0.15 0  0.12 0.15 0  0.135 0.15 0  0.15 0.15 0  0.165 0.15 0  0.18 0.15 0  0.195 0.15 0  0.21 0.15 0  0.225 0.15 0  0.24 0.15 0  0.255 0.15 0  0.27 0.15 0  0.285 0.15 0  0.3 0.15 0  0 0.165 0  0.015 0.165 0  0.03 0.165 0  0.045 0.165 0  0.06 0.165 0  0.075 0.165 0  0.09 0.165 0  0.105 0.165 0  0.12 0.165 0  0.135 0.165 0  0.15 0.165 0  0.165 0.165 0  0.18 0.165 0  0.195 0.165 0  0.21 0.165 0  0.225 0.165 0  0.24 0.165 0  0.255 0.165 0  0.27 0.165 0  0.285 0.165 0  0.3 0.165 0  0 0.18 0  0.015 0.18 0  0.03 0.18 0  0.045 0.18 0  0.06 0.18 0  0.075 0.18 0  0.09 0.18 0  0.105 0.18 0  0.12 0.18 0  0.135 0.18 0  0.15 0.18 0  0.165 0.18 0  0.18 0.18 0  0.195 0.18 0  0.21 0.18 0  0.225 0.18 0  0.24 0.18 0  0.255 0.18 0  0.27 0.18 0  0.285 0.18 0  0.3 0.18 0  0 0.195 0  0.015 0.195 0  0.03 0.195 0  0.045 0.195 0  0.06 0.195 0  0.075 0.195 0  0.09 0.195 0  0.105 0.195 0  0.12 0.195 0  0.135 0.195 0  0.15 0.195 0  0.165 0.195 0  0.18 0.195 0  0.195 0.195 0  0.21 0.195 0  0.225 0.195 0  0.24 0.195 0  0.255 0.195 0  0.27 0.195 0  0.285 0.195 0  0.3 0.195 0  0 0.21 0  0.015 0.21 0  0.03 0.21 0  0.045 0.21 0  0.06 0.21 0  0.075 0.21 0  0.09 0.21 0  0.105 0.21 0  0.12 0.21 0  0.135 0.21 0  0.15 0.21 0  0.165 0.21 0  0.18 0.21 0  0.195 0.21 0  0.21 0.21 0  0.225 0.21 0  0.24 0.21 0  0.255 0.21 0  0.27 0.21 0  0.285 0.21 0  0.3 0.21 0  0 0.225 0  0.015 0.225 0  0.03 0.225 0  0.045 0.225 0  0.06 0.225 0  0.075 0.225 0  0.09 0.225 0  0.105 0.225 0  0.12 0.225 0  0.135 0.225 0  0.15 0.225 0  0.165 0.225 0  0.18 0.225 0  0.195 0.225 0  0.21 0.225 0  0.225 0.225 0  0.24 0.225 0  0.255 0.225 0  0.27 0.225 0  0.285 0.225 0  0.3 0.225 0  0 0.24 0  0.015 0.24 0  0.03 0.24 0  0.045 0.24 0  0.06 0.24 0  0.075 0.24 0  0.09 0.24 0  0.105 0.24 0  0.12 0.24 0  0.135 0.24 0  0.15 0.24 0  0.165 0.24 0  0.18 0.24 0  0.195 0.24 0  0.21 0.24 0  0.225 0.24 0  0.24 0.24 0  0.255 0.24 0  0.27 0.24 0  0.285 0.24 0  0.3 0.24 0  0 0.255 0  0.015 0.255 0  0.03 0.255 0  0.045 0.255 0  0.06 0.255 0  0.075 0.255 0  0.09 0.255 0  0.105 0.255 0  0.12 0.255 0  0.135 0.255 0  0.15 0.255 0  0.165 0.255 0  0.18 0.255 0  0.195 0.255 0  0.21 0.255 0  0.225 0.255 0  0.24 0.255 0  0.255 0.255 0  0.27 0.255 0  0.285 0.255 0  0.3 0.255 0  0 0.27 0  0.015 0.27 0  0.03 0.27 0  0.045 0.27 0  0.06 0.27 0  0.075 0.27 0  0.09 0.27 0  0.105 0.27 0  0.12 0.27 0  0.135 0.27 0  0.15 0.27 0  0.165 0.27 0  0.18 0.27 0  0.195 0.27 0  0.21 0.27 0  0.225 0.27 0  0.24 0.27 0  0.255 0.27 0  0.27 0.27 0  0.285 0.27 0  0.3 0.27 0  0 0.285 0  0.015 0.285 0  0.03 0.285 0  0.045 0.285 0  0.06 0.285 0  0.075 0.285 0  0.09 0.285 0  0.105 0.285 0  0.12 0.285 0  0.135 0.285 0  0.15 0.285 0  0.165 0.285 0  0.18 0.285 0  0.195 0.285 0  0.21 0.285 0  0.225 0.285 0  0.24 0.285 0  0.255 0.285 0  0.27 0.285 0  0.285 0.285 0  0.3 0.285 0  0 0.3 0  0.015 0.3 0  0.03 0.3 0  0.045 0.3 0  0.06 0.3 0  0.075 0.3 0  0.09 0.3 0  0.105 0.3 0  0.12 0.3 0  0.135 0.3 0  0.15 0.3 0  0.165 0.3 0  0.18 0.3 0  0.195 0.3 0  0.21 0.3 0  0.225 0.3 0  0.24 0.3 0  0.255 0.3 0  0.27 0.3 0  0.285 0.3 0  0.3 0.3 0  0 0 0.00075  0.015 0 0.00075  0.03 0 0.00075  0.045 0 0.00075  0.06 0 0.00075  0.075 0 0.00075  0.09 0 0.00075  0.105 0 0.00075  0.12 0 0.00075  0.135 0 0.00075  0.15 0 0.00075  0.165 0 0.00075  0.18 0 0.00075  0.195 0 0.00075  0.21 0 0.00075  0.225 0 0.00075  0.24 0 0.00075  0.255 0 0.00075  0.27 0 0.00075  0.285 0 0.00075  0.3 0 0.00075  0 0.015 0.00075  0.015 0.015 0.00075  0.03 0.015 0.00075  0.045 0.015 0.00075  0.06 0.015 0.00075  0.075 0.015 0.00075  0.09 0.015 0.00075  0.105 0.015 0.00075  0.12 0.015 0.00075  0.135 0.015 0.00075  0.15 0.015 0.00075  0.165 0.015 0.00075  0.18 0.015 0.00075  0.195 0.015 0.00075  0.21 0.015 0.00075  0.225 0.015 0.00075  0.24 0.015 0.00075  0.255 0.015 0.00075  0.27 0.015 0.00075  0.285 0.015 0.00075  0.3 0.015 0.00075  0 0.03 0.00075  0.015 0.03 0.00075  0.03 0.03 0.00075  0.045 0.03 0.00075  0.06 0.03 0.00075  0.075 0.03 0.00075  0.09 0.03 0.00075  0.105 0.03 0.00075  0.12 0.03 0.00075  0.135 0.03 0.00075  0.15 0.03 0.00075  0.165 0.03 0.00075  0.18 0.03 0.00075  0.195 0.03 0.00075  0.21 0.03 0.00075  0.225 0.03 0.00075  0.24 0.03 0.00075  0.255 0.03 0.00075  0.27 0.03 0.00075  0.285 0.03 0.00075  0.3 0.03 0.00075  0 0.045 0.00075  0.015 0.045 0.00075  0.03 0.045 0.00075  0.045 0.045 0.00075  0.06 0.045 0.00075  0.075 0.045 0.00075  0.09 0.045 0.00075  0.105 0.045 0.00075  0.12 0.045 0.00075  0.135 0.045 0.00075  0.15 0.045 0.00075  0.165 0.045 0.00075  0.18 0.045 0.00075  0.195 0.045 0.00075  0.21 0.045 0.00075  0.225 0.045 0.00075  0.24 0.045 0.00075  0.255 0.045 0.00075  0.27 0.045 0.00075  0.285 0.045 0.00075  0.3 0.045 0.00075  0 0.06 0.00075  0.015 0.06 0.00075  0.03 0.06 0.00075  0.045 0.06 0.00075  0.06 0.06 0.00075  0.075 0.06 0.00075  0.09 0.06 0.00075  0.105 0.06 0.00075  0.12 0.06 0.00075  0.135 0.06 0.00075  0.15 0.06 0.00075  0.165 0.06 0.00075  0.18 0.06 0.00075  0.195 0.06 0.00075  0.21 0.06 0.00075  0.225 0.06 0.00075  0.24 0.06 0.00075  0.255 0.06 0.00075  0.27 0.06 0.00075  0.285 0.06 0.00075  0.3 0.06 0.00075  0 0.075 0.00075  0.015 0.075 0.00075  0.03 0.075 0.00075  0.045 0.075 0.00075  0.06 0.075 0.00075  0.075 0.075 0.00075  0.09 0.075 0.00075  0.105 0.075 0.00075  0.12 0.075 0.00075  0.135 0.075 0.00075  0.15 0.075 0.00075  0.165 0.075 0.00075  0.18 0.075 0.00075  0.195 0.075 0.00075  0.21 0.075 0.00075  0.225 0.075 0.00075  0.24 0.075 0.00075  0.255 0.075 0.00075  0.27 0.075 0.00075  0.285 0.075 0.00075  0.3 0.075 0.00075  0 0.09 0.00075  0.015 0.09 0.00075  0.03 0.09 0.00075  0.045 0.09 0.00075  0.06 0.09 0.00075  0.075 0.09 0.00075  0.09 0.09 0.00075  0.105 0.09 0.00075  0.12 0.09 0.00075  0.135 0.09 0.00075  0.15 0.09 0.00075  0.165 0.09 0.00075  0.18 0.09 0.00075  0.195 0.09 0.00075  0.21 0.09 0.00075  0.225 0.09 0.00075  0.24 0.09 0.00075  0.255 0.09 0.00075  0.27 0.09 0.00075  0.285 0.09 0.00075  0.3 0.09 0.00075  0 0.105 0.00075  0.015 0.105 0.00075  0.03 0.105 0.00075  0.045 0.105 0.00075  0.06 0.105 0.00075  0.075 0.105 0.00075  0.09 0.105 0.00075  0.105 0.105 0.00075  0.12 0.105 0.00075  0.135 0.105 0.00075  0.15 0.105 0.00075  0.165 0.105 0.00075  0.18 0.105 0.00075  0.195 0.105 0.00075  0.21 0.105 0.00075  0.225 0.105 0.00075  0.24 0.105 0.00075  0.255 0.105 0.00075  0.27 0.105 0.00075  0.285 0.105 0.00075  0.3 0.105 0.00075  0 0.12 0.00075  0.015 0.12 0.00075  0.03 0.12 0.00075  0.045 0.12 0.00075  0.06 0.12 0.00075  0.075 0.12 0.00075  0.09 0.12 0.00075  0.105 0.12 0.00075  0.12 0.12 0.00075  0.135 0.12 0.00075  0.15 0.12 0.00075  0.165 0.12 0.00075  0.18 0.12 0.00075  0.195 0.12 0.00075  0.21 0.12 0.00075  0.225 0.12 0.00075  0.24 0.12 0.00075  0.255 0.12 0.00075  0.27 0.12 0.00075  0.285 0.12 0.00075  0.3 0.12 0.00075  0 0.135 0.00075  0.015 0.135 0.00075  0.03 0.135 0.00075  0.045 0.135 0.00075  0.06 0.135 0.00075  0.075 0.135 0.00075  0.09 0.1
[...]
<PointData  Vectors="f_205"> 
<DataArray  type="Float64"  Name="f_205"  NumberOfComponents="3" format="ascii">-2.4159138976071631e+01 -4.9168821665667991e+01 -1.8709325419682294e+00  -1.9878932298539549e+01 -4.7613195420204882e+01 -1.8979937544522854e+00  -1.5649027388463226e+01 -4.5974609978774836e+01 -1.8902929663349306e+00  -1.1540791020985115e+01 -4.4240015411101410e+01 -1.8637580310701081e+00  -7.5939146926119152e+00 -4.2428915888316574e+01 -1.8291365711551417e+00  -3.8216614505970594e+00 -4.0562340002786996e+01 -1.7917548794102940e+00  -2.2183515365055262e-01 -3.8651625631715717e+01 -1.7539296175097627e+00  3.2151087293285281e+00 -3.6695381677341423e+01 -1.7161427418682624e+00  6.4987200016136564e+00 -3.4677447795652917e+01 -1.6760417557496374e+00  9.6271469541817698e+00 -3.2567851527343919e+01 -1.6269507018900320e+00  1.2574173980138802e+01 -3.0334260710427891e+01 -1.5599496445646872e+00  1.5289606182035044e+01 -2.7963777543698889e+01 -1.4707927821405469e+00  1.7721238603196035e+01 -2.5476458350830431e+01 -1.3639345656715505e+00  1.9838248508416733e+01 -2.2914627177280039e+01 -1.2474985737414472e+00  2.1634664940863953e+01 -2.0321869914630948e+01 -1.1268188726055712e+00  2.3118499800696863e+01 -1.7732700647673138e+01 -1.0033261364930977e+00  2.4302044498275322e+01 -1.5175490570138095e+01 -8.7703366566486751e-01  2.5201047985506374e+01 -1.2680680063242171e+01 -7.5030327767894400e-01  2.5846035562250190e+01 -1.0285301502264106e+01 -6.3288101723916412e-01  2.6305745527700601e+01 -8.0197888401127333e+00 -5.4513793375582642e-01  2.6704224526008677e+01 -5.8663449671846779e+00 -5.1059777032816356e-01  -2.5725593180252179e+01 -4.4908909200675581e+01 -1.8438841240857358e+00  -2.1471579947429660e+01 -4.3420699344972320e+01 -1.8789980456711590e+00  -1.7288290035205893e+01 -4.1905228582900328e+01 -1.8748857953161810e+00  -1.3235521925039789e+01 -4.0325081605201113e+01 -1.8474666139009794e+00  -9.3429912613197530e+00 -3.8680820909890691e+01 -1.8100153769778484e+00  -5.6216666773300847e+00 -3.6982452404602149e+01 -1.7693265981328863e+00  -2.0730056890410595e+00 -3.5236320739930527e+01 -1.7281181783455715e+00  1.3057507314562511e+00 -3.3440644775761172e+01 -1.6868730953041273e+00  4.5172144905688674e+00 -3.1584579378522246e+01 -1.6434853729853931e+00  7.5569481408262229e+00 -2.9650376705670098e+01 -1.5919651046915160e+00  1.0405161921056711e+01 -2.7620555203736835e+01 -1.5237079146912127e+00  1.3026171772339648e+01 -2.5488848268178693e+01 -1.4334556775027965e+00  1.5382457218242354e+01 -2.3267365870743383e+01 -1.3242757163751002e+00  1.7451330445124523e+01 -2.0983072936169314e+01 -1.2041714166798747e+00  1.9227945803522196e+01 -1.8667563370958167e+01 -1.0792924307919833e+00  2.0717711188012931e+01 -1.6349768198342332e+01 -9.5174708522591822e-01  2.1929581949939159e+01 -1.4055246256690298e+01 -8.2184903180637037e-01  2.2875397114960403e+01 -1.1808649889489869e+01 -6.9208193184268063e-01  2.3577408673385431e+01 -9.6326894376540597e+00 -5.7215684527963828e-01  2.4086233358465982e+01 -7.5342109264314461e+00 -4.8220417568773860e-01  2.4504654808554005e+01 -5.4681628693695759e+00 -4.4103350092941129e-01  -2.7226322158321143e+01 -4.0619038047121158e+01 -1.8166365558385109e+00  -2.2988022025599026e+01 -3.9227801786483639e+01 -1.8554543769051928e+00  -1.8820770458262121e+01 -3.7836425285379839e+01 -1.8541700614677861e+00  -1.4793882969267774e+01 -3.6407739857052860e+01 -1.8257216595052848e+00  -1.0935209132398612e+01 -3.4929526939768252e+01 -1.7851189479011311e+00  -7.2529728386365049e+00 -3.3401486400834401e+01 -1.7402721280018172e+00  -3.7481839687312211e+00 -3.1824621161453262e+01 -1.6941040636067737e+00  -4.1985885086953989e-01 -3.0196594118156277e+01 -1.6469166671717239e+00  2.7321336846621018e+00 -2.8510947475281650e+01 -1.5967814515667569e+00  5.7027942083475773e+00 -2.6759203480066926e+01 -1.5388917375488329e+00  8.4765423997343170e+00 -2.4934932405189588e+01 -1.4664520943915520e+00  1.1026565387274113e+01 -2.3037822620963734e+01 -1.3748884618655430e+00  1.3324351856046691e+01 -2.1075789286935702e+01 -1.2659351849890856e+00  1.5352156673234692e+01 -1.9064446833501499e+01 -1.1458179375049173e+00  1.7105754352373605e+01 -1.7024212582267889e+01 -1.0199524649045046e+00  1.8588400966162506e+01 -1.4976808330661786e+01 -8.9061757123102503e-01  1.9805252622618301e+01 -1.2943028062573299e+01 -7.5864166307444936e-01  2.0763164119579478e+01 -1.0941289871835142e+01 -6.2721322957955494e-01  2.1478605070327685e+01 -8.9836312955268198e+00 -5.0700743791413350e-01  2.1997402209127763e+01 -7.0642930198524834e+00 -4.1924733234008854e-01  2.2424639209165026e+01 -5.1380995267146066e+00 -3.8149165354738718e-01  -2.8606137399803480e+01 -3.6295845786101580e+01 -1.7924629122028730e+00  -2.4380054267838950e+01 -3.5031324854539719e+01 -1.8329399947788227e+00  -2.0220839401700815e+01 -3.3776581346849269e+01 -1.8327981072421891e+00  -1.6206120456436942e+01 -3.2500939051639470e+01 -1.8034682474398835e+00  -1.2367228905253940e+01 -3.1188582878680968e+01 -1.7600613977846220e+00  -8.7121179480813336e+00 -2.9833108023368261e+01 -1.7109708947410671e+00  -5.2411063288615791e+00 -2.8431588880824950e+01 -1.6592364822765280e+00  -1.9534405442884724e+00 -2.6981216704485533e+01 -1.6050938574143052e+00  1.1501055702748173e+00 -2.5478485164216536e+01 -1.5469375478883320e+00  4.0645376470859311e+00 -2.3920493524966044e+01 -1.4813218369711501e+00  6.7774626474595268e+00 -2.2306837790095525e+01 -1.4036762326767667e+00  9.2688990228182693e+00 -2.0640366718611446e+01 -1.3108312828487314e+00  1.1517454958098359e+01 -1.8926953769688495e+01 -1.2035596336423158e+00  1.3508824733447502e+01 -1.7175808412825734e+01 -1.0857608126491554e+00  1.5238232311406886e+01 -1.5399701986712619e+01 -9.6124598229370917e-01  1.6706381585287019e+01 -1.3613790988327917e+01 -8.3203455050771513e-01  1.7915254626486224e+01 -1.1833362264621396e+01 -6.9946633338579778e-01  1.8868506178221711e+01 -1.0070958223008692e+01 -5.6747855504508460e-01  1.9580200391817655e+01 -8.3318295010411774e+00 -4.4753050677629030e-01  2.0096090796699812e+01 -6.6060681630295148e+00 -3.6146574227628292e-01  2.0525065377172609e+01 -4.8584635023922988e+00 -3.2602320620393554e-01  -2.9835031399899773e+01 -3.1945638459937939e+01 -1.7725834650125147e+00  -2.5619025284080017e+01 -3.0830146554993547e+01 -1.8134715677397690e+00  -2.1465659107285518e+01 -2.9726010278581899e+01 -1.8132109086938066e+00  -1.7458083019761535e+01 -2.8609655748203259e+01 -1.7825182037808365e+00  -1.3631443558055551e+01 -2.7465982587872954e+01 -1.7364059031918158e+00  -9.9951084856711407e+00 -2.6286479907401070e+01 -1.6833194046579816e+00  -6.5496010313056185e+00 -2.5066246163573098e+01 -1.6263164465176492e+00  -3.2943008152969981e+00 -2.3802321049679517e+01 -1.5656857565757993e+00  -2.3028615880670986e-01 -2.2492870706750761e+01 -1.5002204780498680e+00  2.6378248209291830e+00 -2.1137709158063966e+01 -1.4276147852318584e+00  5.3002248250040349e+00 -1.9738858025073490e+01 -1.3450586017582000e+00  7.7421822053162845e+00 -1.8300059732939115e+01 -1.2506238251164439e+00  9.9479215587765317e+00 -1.6825959156788365e+01 -1.1445812760416312e+00  1.1905896606603532e+01 -1.5322537936613319e+01 -1.0290355450121818e+00  1.3610654593828173e+01 -1.3798068462823162e+01 -9.0627868643415255e-01  1.5060585116140089e+01 -1.2262806293156721e+01 -7.7786154721738965e-01  1.6255325572415909e+01 -1.0727176171061764e+01 -6.4541381861054448e-01  1.7196868955281669e+01 -9.1989862469804340e+00 -5.1342026588178313e-01  1.7898821413476384e+01 -7.6796572869629669e+00 -3.9383973465152794e-01  1.8408188983196442e+01 -6.1594936016519242e+00 -3.0872670463076535e-01  1.8836230854070010e+01 -4.6143635158027525e+00 -2.7420211548042289e-01  -3.0895679473139044e+01 -2.7576115975469722e+01 -1.7575399691171874e+00  -2.6688038705503462e+01 -2.6625254241401191e+01 -1.7980259657775797e+00  -2.2539778183375571e+01 -2.5684000894677386e+01 -1.7968010040315607e+00  -1.8537602613459846e+01 -2.4734767867492778e+01 -1.7642574408434233e+00  -1.4719705077137290e+01 -2.3764707764488026e+01 -1.7153935834789036e+00  -1.1097232610687271e+01 -2.2765486217704016e+01 -1.6586371934458937e+00  -7.6715564251012784e+00 -2.1731683867783829e+01 -1.5970089275305313e+00  -4.4423935584164926e+00 -2.0660597061915897e+01 -1.5309029571474195e+00  -1.4108864725219967e+00 -1.9551208701316170e+01 -1.4594878575994028e+00  1.4189599531844326e+00 -1.8404286043639011e+01 -1.3812780422636226e+00  4.0394763807655263e+00 -1.7222320004865352e+01 -1.2946061195385039e+00  6.4397980683703757e+00 -1.6008766374069495e+01 -1.1983517414098075e+00  8.6082750737565537e+00 -1.4767317649196620e+01 -1.0925529353635790e+00  1.0535573803523427e+01 -1.3502258553588105e+01 -9.7823162811720887e-01  1.2215958154083527e+01 -1.2219258362460007e+01 -8.5664425853609283e-01  1.3646249272016901e+01 -1.0925223308635134e+01 -7.2890847970399397e-01  1.4824590878562498e+01 -9.6269349698466229e+00 -5.9673755343815660e-01  1.5752254618044038e+01 -8.3288949335378799e+00 -4.6490436290496617e-01  1.6443164036250529e+01 -7.0306960130280487e+00 -3.4559582278419299e-01  1.6945540564037078e+01 -5.7245597982473591e+00 -2.6081737494370577e-01  1.7371506623389255e+01 -4.3954180771423763e+00 -2.2620378065760494e-01  -3.1777907308319367e+01 -2.3193727602729044e+01 -1.7476963360576501e+00  -2.7576998013515983e+01 -2.2418270823981970e+01 -1.7872369177918457e+00  -2.3433230829006906e+01 -2.1649904868559716e+01 -1.7844813933730403e+00  -1.9435712890664327e+01 -2.0875443996044162e+01 -1.7497028529808072e+00  -1.5624921773292934e+01 -2.0084545285318303e+01 -1.6980086733146247e+00  -1.2013572636126765e+01 -1.9270130048865170e+01 -1.6378861959319966e+00  -8.6040851851658839e+00 -1.8426946874799597e+01 -1.5722797801366801e+00  -5.3965723994209505e+00 -1.7552997993456952e+01 -1.5016921825784693e+00  -2.3921002919950265e+00 -1.6647600452980203e+01 -1.4255773206432329e+00  4.0602314665437855e-01 -1.5711553073001955e+01 -1.3429871782706015e+00  2.9918557318393373e+00 -1.4746953315145765e+01 -1.2529304976067390e+00  5.3572984076139907e+00 -1.3756533177638707e+01 -1.1547468107388696e+00  7.4935936419525850e+00 -1.2743149551902709e+01 -1.0483742864323613e+00  9.3931271670813956e+00 -1.1710011179679876e+01 -9.3426671255522142e-01  1.1050281553135529e+01 -1.0661143726297604e+01 -8.1308732380945614e-01  1.2461084784885722e+01 -9.6012132683072569e+00 -6.8564443777105000e-01  1.3622904999937465e+01 -8.5345398505308925e+00 -5.5362206106382661e-01  1.4536807492849794e+01 -7.4636072194263363e+00 -4.2188563677588314e-01  1.5217197724691291e+01 -6.3874363676300163e+00 -3.0265393611589686e-01  1.5713077940859772e+01 -5.3005443892187545e+00 -2.1774309489778088e-01  1.6136421293883028e+01 -4.1944198217849644e+00 -1.8240166516343598e-01  -3.2475690387526171e+01 -1.8802774114305453e+01 -1.7435328948058464e+00  -2.8279667791473312e+01 -1.8210498766981392e+01 -1.7817501166063614e+00  -2.4139492792152325e+01 -1.7623083630660783e+01 -1.7770701487601810e+00  -2.0145989713094735e+01 -1.7030203287649169e+01 -1.7397159213270919e+00  -1.6341333055430425e+01 -1.6423723583774017e+01 -1.6850119203084752e+00  -1.2739442714926893e+01 -1.5798318331211954e+01 -1.6217287785847010e+00  -9.3438269992966241e+00 -1.5148966047970823e+01 -1.5526481595475854e+00  -6.1548042814957302e+00 -1.4475039821228426e+01 -1.4783666071074433e+00  -3.1731815075518663e+00 -1.3775866170637014e+01 -1.3984869761189205e+00  -4.0157843432164037e-01 -1.3051826485992750e+01 -1.3123862819685357e+00  2.1554117490820843e+00 -1.2304321529192370e+01 -1.2194638228463799e+00  4.4916410281670833e+00 -1.1535264711836332e+01 -1.1193163625769951e+00  6.6003519106799393e+00 -1.0746739949071120e+01 -1.0118505460063703e+00  8.4752457749731516e+00 -9.9411131591734083e+00 -8.9724819945822132e-01  1.0111066440292767e+01 -9.1212459478254306e+00 -7.7586281569410431e-01  1.1503604570349125e+01 -8.2902995189608664e+00 -6.4830601686807821e-01  1.2649949730410977e+01 -7.4510487197569031e+00 -5.1619249111856647e-01  1.3551216255244213e+01 -6.6049234780790647e+00 -3.8437108464862529e-01  1.4222217651071192e+01 -5.7510965491210575e+00 -2.6498061173186183e-01  1.4712303828185114e+01 -4.8862233074881694e+00 -1.7958878727439634e-01  1.5132752344813149e+01 -4.0062892240371850e+00 -1.4313302032501446e-01  -3.2984809741567830e+01 -1.4404627608353085e+01 -1.7457206677845429e+00  -2.8791560936399083e+01 -1.4001966602145247e+01 -1.7824213834296951e+00  -2.4653857957195939e+01 -1.3602159537986426e+01 -1.7756386392139667e+00  -2.0663798799800674e+01 -1.3196939895504523e+01 -1.7354891604513345e+00  -1.6864443314489989e+01 -1.2779767941772024e+01 -1.6773524830542077e+00  -1.3270542106535016e+01 -1.2347002078946389e+01 -1.6108159662471022e+00  -9.8873264381623311e+00 -1.1893714122614524e+01 -1.5384330906433339e+00  -6.7147154242556217e+00 -1.1421896673868808e+01 -1.4610021482799298e+00  -3.7528587700767781e+00 -1.0930391570595118e+01 -1.3780012050124251e+00  -1.0037338999632013e+00 -1.0418898352307325e+01 -1.2889605591788642e+00  1.5290744166847696e+00 -9.8880577513056807e+00 -1.1935120785401285e+00  3.8407784087534234e+00 -9.3389923405534283e+00 -1.0914071868565236e+00  5.9260057387006952e+00 -8.7730550327582950e+00 -9.8255626339876068e-01  7.7794587469804419e+00 -8.1918658090889043e+00 -8.6702065121084304e-01  9.3963329260913220e+00 -7.5973884240829923e+00 -7.4499900962677035e-01  1.0772491312798554e+01 -6.9917609837909884e+00 -6.1698311537611417e-01  1.1905023136948236e+01 -6.3768485398010677e+00 -4.8451480277955589e-01  1.2795186332359762e+01 -5.7536669339258362e+00 -3.5237946244252338e-01  1.3458062979442797e+01 -5.1219223011087509e+00 -2.3258729776930254e-01  1.3943035051325623e+01 -4.4801154149338158e+00 -1.4644739172050672e-01  1.4360460855042565e+01 -3.8273055026012535e+00 -1.0864387925659971e-01  -3.3299905932241174e+01 -9.9979139484048893e+00 -1.7542800090278976e+00  -2.9107993339941597e+01 -9.7906932308249068e+00 -1.7896301034747948e+00  -2.4972083015907863e+01 -9.5833352250195141e+00 -1.7810473799105779e+00  -2.0985381031303149e+01 -9.3706167911599945e+00 -1.7384065027487188e+00  -1.7191841668440492e+01 -9.1486562266018066e+00 -1.6771484856111962e+00  -1.3603140116576702e+01 -8.9116563491986245e+00 -1.6068026985420938e+00  -1.0231201547401357e+01 -8.6564606171326464e+00 -1.5301307768297310e+00  -7.0740432386216439e+00 -8.3887733170974972e+00 -1.4496765700509278e+00  -4.1298544055952604e+00 -8.1062354235416425e+00 -1.3639317431943929e+00  -1.4001051445078236e+00 -7.8077681880848742e+00 -1.2723007374215363e+00  1.1122509750931597e+00 -7.4933229416164640e+00 -1.1745401618691338e+00  3.4033267422338218e+00 -7.1633074667399361e+00 -1.0705000640099669e+00  5.4687048376175875e+00 -6.8183839219838189e+00 -9.6010842742800617e-01  7.3038452050109575e+00 -6.4594813090996306e+00 -8.4337710219379092e-01  8.9043885493102390e+00 -6.0878284182130962e+00 -7.2042770607165030e-01  1.0266398043602992e+01 -5.7048484006071734e+00 -5.9167837712602223e-01  1.1387073179849152e+01 -5.3119037368591799e+00 -4.5860709575529057e-01  1.2267806784166051e+01 -4.9099876082596330e+00 -3.2592285779710023e-01  1.2923801594153758e+01 -4.4995305228277411e+00 -2.0549639419310836e-01  1.3404269172365414e+01 -4.0806307364418144e+00 -1.1839460830042702e-01  1.3818617296564785e+01 -3.6545653134176477e+00 -7.9097320031550664e-02  -3.3412492211451372e+01 -5.5839382665524067e+00 -1.7675501597360126e+00  -2.9222949623854486e+01 -5.5762808743859278e+00 -1.8017369997987449e+00  -2.5090025447865170e+01 -5.5631379697341012e+00 -1.7916704963504206e+00  -2.1107886213124683e+01 -5.5432649443060322e+00 -1.7474217141090764e+00  -1.7319582398105503e+01 -5.5152843842955352e+00 -1.6846774750800941e+00  -1.3736947473758615e+01 -5.4784474083830688e+00 -1.6134928666829367e+00  -1.0373176324047940e+01 -5.4308015764561057e+00 -1.5286393533719940e+00  -7.2315341328195570e+00 -5.3710126959561988e+00 -1.4445545580109023e+00  -4.3034878137028816e+00 -5.2991327896122007e+00 -1.3561624844447115e+00  -1.5905104593920889e+00 -5.2143813928268248e+00 -1.2621244541914132e+00  9.0454065455737598e-01 -5.1163535317640152e+00 -1.1621788184807669e+00  3.1783128272685017e+00 -5.0048727483604765e+00 -1.0562254910902269e+00  5.2270628976712246e+00 -4.8799585978991011e+00 -9.4420901287000270e-01  7.0468416144738795e+00 -4.7418849665356477e+00 -8.2612171883934427e-01  8.6336927922498958e+00 -4.5912388198647678e+00 -7.0204483243220939e-01  9.9839034739006056e+00 -4.4289056475737825e+00 -5.7234818774473584e-01  1.1094786322998951e+01 -4.2559798041578292e+00 -4.3845583911821745e-01  1.1967792794497836e+01 -4.0736535908238993e+00 -3.0500204179645007e-01  1.2618095872187041e+01 -3.8831850645048793e+00 -1.8372603063760731e-01  1.3094603263052985e+01 -3.6861391506820600e+00 -9.5482018274607144e-02  1.3505837714647020e+01 -3.4856076451713958e+00 -5.4592301807101833e-02  -3.3314687010217014e+01 -1.1720801099736362e+00 -1.7842318954678316e+00  -2.9129496637043662e+01 -1.3656876872779593e+00 -1.8167911553428413e+00  -2.5000693980767736e+01 -1.5489035105865645e+00 -1.8042897249447083e+00  -2.1023719063077824e+01 -1.7240885918244107e+00 -1.7570037655103548e+00  -1.7242662933157540e+01 -1.8924290829056087e+00 -1.6906807097994396e+00  -1.3672996082468959e+01 -2.0544777613514036e+00 -1.6142427234521124e+00  -1.0320577094241473e+01 -2.2142446916265706e+00 -1.5311352068396165e+00  -7.1903230227111301e+00 -2.3656716380329130e+00 -1.4451883808589852e+00  -4.2744801283399694e+00 -2.5059358173836896e+00 -1.3545240853833014e+00  -1.5750267464891670e+00 -2.6355966348140805e+00 -1.2582325180195728e+00  9.0571487216059932e-01 -2.7542131094848470e+00 -1.1561819163232827e+00  3.1650969278556866e+00 -2.8611102260831589e+00 -1.0483284113822600e+00  5.2000369759881444e+00 -2.9556799432749061e+00 -9.3463524130333231e-01  7.0071257612147271e+00 -3.0375393501091486e+00 -8.1508746492183537e-01  8.5827825806061302e+00 -3.1066560418153433e+00 -6.8974153802847304e-01  9.9234993399758427e+00 -3.1634416892250847e+00 -5.5893082000061056e-01  1.1026646209434242e+01 -3.2088192598546286e+00 -4.2403166667517295e-01  1.1893611237472276e+01 -3.2442834165977992e+00 -2.8960890527332162e-01  1.2539370910657667e+01 -3.2719914948487738e+00 -1.6728509665381999e-01  1.3012412213488203e+01 -3.2949843899157218e+00 -7.7736473841479387e-02  1.3420465509360753e+01 -3.3181351378245409e+00 -3.5177797904724854e-02  -3.3010663116549438e+01 3.2299892573890814e+00 -1.8059736557563026e+00  -2.8830372413618480e+01 2.8357200463661751e+00 -1.8366048503617609e+00  -2.4707168442339707e+01 2.4548232090766020e+00 -1.8217683615647189e+00  -2.0737212996037950e+01 2.0822708399748637e+00 -1.7719956980131135e+00  -1.6965236622532554e+01 1.7145742177198882e+00 -1.7033209081209555e+00  -1.3406722137718623e+01 1.3495677939214556e+00 -1.6249831984732332e+00  -1.0066039023813595e+01 9.8543304125295128e-01 -1.5408677526806025e+00  -6.9442103805875961e+00 6.2727902642299693e-01 -1.4527652849759936e+00  -4.0392835569874981e+00 2.7539446819537017e-01 -1.3593775526682397e+00  -1.3518973189413053e+00 -6.8942801720283331e-02 -1.2606465073005229e+00  1.1164121559337585e+00 -4.0450507642879602e-01 -1.1564309182322594e+00  3.3635419532031920e+00 -7.2992558429992138e-01 -1.0466431521281501e+00  5.3869103053637710e+00 -1.0438855022552129e+00 -9.3122397093499487e-01  7.1835509916665403e+00 -1.3452835882861220e+00 -8.1013920687095864e-01  8.7502126949769305e+00 -1.6334145315904449e+00 -6.8341988749597538e-01  1.0083554641026424e+01 -1.9081714549321440e+00 -5.5136443325923967e-01  1.1180924519485265e+01 -2.1702762884170710e+00 -4.1530229798634233e-01  1.2043494099947567e+01 -2.4215263331869474e+00 -2.7973199441869773e-01  1.2685840294991644e+01 -2.6650333886302890e+00 -1.5617368498492268e-01  1.3155874850393241e+01 -2.9054637186603274e+00 -6.5160988514816193e-02  1.3560595110139120e+01 -3.1497733446376759e+00 -2.0859452856538264e-02  -3.2505770113304294e+01 7.6209880903744383e+00 -1.8338888051821642e+00  -2.8328996469839456e+01 7.0280511761470708e+00 -1.8625