<?xml version="1.0"?>
<VTKFile type="UnstructuredGrid"  version="0.1"  >
<UnstructuredGrid>
<Piece  NumberOfPoints="9261" NumberOfCells="48000">
<Points>
<DataArray  type="Float64"  NumberOfComponents="3"  format="ascii">0 0 0  0.015 0 0  0.03 0 0  0.045 0 0  0.06 0 0  0.075 0 0  0.09 0 0  0.105 0 0  0.12 0 0  0.135 0 0  0.15 0 0  0.165 0 0  0.18 0 0  0.195 0 0  0.21 0 0  0.225 0 0  0.24 0 0  0.255 0 0  0.27 0 0  0.285 0 0  0.3 0 0  0 0.015 0  0.015 0.015 0  0.03 0.015 0  0.045 0.015 0  0.06 0.015 0  0.075 0.015 0  0.09 0.015 0  0.105 0.015 0  0.12 0.015 0  0.135 0.015 0  0.15 0.015 0  0.165 0.015 0  0.18 0.015 0  0.195 0.015 0  0.21 0.015 0  0.225 0.015 0  0.24 0.015 0  0.255 0.015 0  0.27 0.015 0  0.285 0.015 0  0.3 0.015 0  0 0.03 0  0.015 0.03 0  0.03 0.03 0  0.045 0.03 0  0.06 0.03 0  0.075 0.03 0  0.09 0.03 0  0.105 0.03 0  0.12 0.03 0  0.135 0.03 0  0.15 0.03 0  0.165 0.03 0  0.18 0.03 0  0.195 0.03 0  0.21 0.03 0  0.225 0.03 0  0.24 0.03 0  0.255 0.03 0  0.27 0.03 0  0.285 0.03 0  0.3 0.03 0  0 0.045 0  0.015 0.045 0  0.03 0.045 0  0.045 0.045 0  0.06 0.045 0  0.075 0.045 0  0.09 0.045 0  0.105 0.045 0  0.12 0.045 0  0.135 0.045 0  0.15 0.045 0  0.165 0.045 0  0.18 0.045 0  0.195 0.045 0  0.21 0.045 0  0.225 0.045 0  0.24 0.045 0  0.255 0.045 0  0.27 0.045 0  0.285 0.045 0  0.3 0.045 0  0 0.06 0  0.015 0.06 0  0.03 0.06 0  0.045 0.06 0  0.06 0.06 0  0.075 0.06 0  0.09 0.06 0  0.105 0.06 0  0.12 0.06 0  0.135 0.06 0  0.15 0.06 0  0.165 0.06 0  0.18 0.06 0  0.195 0.06 0  0.21 0.06 0  0.225 0.06 0  0.24 0.06 0  0.255 0.06 0  0.27 0.06 0  0.285 0.06 0  0.3 0.06 0  0 0.075 0  0.015 0.075 0  0.03 0.075 0  0.045 0.075 0  0.06 0.075 0  0.075 0.075 0  0.09 0.075 0  0.105 0.075 0  0.12 0.075 0  0.135 0.075 0  0.15 0.075 0  0.165 0.075 0  0.18 0.075 0  0.195 0.075 0  0.21 0.075 0  0.225 0.075 0  0.24 0.075 0  0.255 0.075 0  0.27 0.075 0  0.285 0.075 0  0.3 0.075 0  0 0.09 0  0.015 0.09 0  0.03 0.09 0  0.045 0.09 0  0.06 0.09 0  0.075 0.09 0  0.09 0.09 0  0.105 0.09 0  0.12 0.09 0  0.135 0.09 0  0.15 0.09 0  0.165 0.09 0  0.18 0.09 0  0.195 0.09 0  0.21 0.09 0  0.225 0.09 0  0.24 0.09 0  0.255 0.09 0  0.27 0.09 0  0.285 0.09 0  0.3 0.09 0  0 0.105 0  0.015 0.105 0  0.03 0.105 0  0.045 0.105 0  0.06 0.105 0  0.075 0.105 0  0.09 0.105 0  0.105 0.105 0  0.12 0.105 0  0.135 0.105 0  0.15 0.105 0  0.165 0.105 0  0.18 0.105 0  0.195 0.105 0  0.21 0.105 0  0.225 0.105 0  0.24 0.105 0  0.255 0.105 0  0.27 0.105 0  0.285 0.105 0  0.3 0.105 0  0 0.12 0  0.015 0.12 0  0.03 0.12 0  0.045 0.12 0  0.06 0.12 0  0.075 0.12 0  0.09 0.12 0  0.105 0.12 0  0.12 0.12 0  0.135 0.12 0  0.15 0.12 0  0.165 0.12 0  0.18 0.12 0  0.195 0.12 0  0.21 0.12 0  0.225 0.12 0  0.24 0.12 0  0.255 0.12 0  0.27 0.12 0  0.285 0.12 0  0.3 0.12 0  0 0.135 0  0.015 0.135 0  0.03 0.135 0  0.045 0.135 0  0.06 0.135 0  0.075 0.135 0  0.09 0.135 0  0.105 0.135 0  0.12 0.135 0  0.135 0.135 0  0.15 0.135 0  0.165 0.135 0  0.18 0.135 0  0.195 0.135 0  0.21 0.135 0  0.225 0.135 0  0.24 0.135 0  0.255 0.135 0  0.27 0.135 0  0.285 0.135 0  0.3 0.135 0  0 0.15 0  0.015 0.15 0  0.03 0.15 0  0.045 0.15 0  0.06 0.15 0  0.075 0.15 0  0.09 0.15 0  0.105 0.15 0  0.12 0.15 0  0.135 0.15 0  0.15 0.15 0  0.165 0.15 0  0.18 0.15 0  0.195 0.15 0  0.21 0.15 0  0.225 0.15 0  0.24 0.15 0  0.255 0.15 0  0.27 0.15 0  0.285 0.15 0  0.3 0.15 0  0 0.165 0  0.015 0.165 0  0.03 0.165 0  0.045 0.165 0  0.06 0.165 0  0.075 0.165 0  0.09 0.165 0  0.105 0.165 0  0.12 0.165 0  0.135 0.165 0  0.15 0.165 0  0.165 0.165 0  0.18 0.165 0  0.195 0.165 0  0.21 0.165 0  0.225 0.165 0  0.24 0.165 0  0.255 0.165 0  0.27 0.165 0  0.285 0.165 0  0.3 0.165 0  0 0.18 0  0.015 0.18 0  0.03 0.18 0  0.045 0.18 0  0.06 0.18 0  0.075 0.18 0  0.09 0.18 0  0.105 0.18 0  0.12 0.18 0  0.135 0.18 0  0.15 0.18 0  0.165 0.18 0  0.18 0.18 0  0.195 0.18 0  0.21 0.18 0  0.225 0.18 0  0.24 0.18 0  0.255 0.18 0  0.27 0.18 0  0.285 0.18 0  0.3 0.18 0  0 0.195 0  0.015 0.195 0  0.03 0.195 0  0.045 0.195 0  0.06 0.195 0  0.075 0.195 0  0.09 0.195 0  0.105 0.195 0  0.12 0.195 0  0.135 0.195 0  0.15 0.195 0  0.165 0.195 0  0.18 0.195 0  0.195 0.195 0  0.21 0.195 0  0.225 0.195 0  0.24 0.195 0  0.255 0.195 0  0.27 0.195 0  0.285 0.195 0  0.3 0.195 0  0 0.21 0  0.015 0.21 0  0.03 0.21 0  0.045 0.21 0  0.06 0.21 0  0.075 0.21 0  0.09 0.21 0  0.105 0.21 0  0.12 0.21 0  0.135 0.21 0  0.15 0.21 0  0.165 0.21 0  0.18 0.21 0  0.195 0.21 0  0.21 0.21 0  0.225 0.21 0  0.24 0.21 0  0.255 0.21 0  0.27 0.21 0  0.285 0.21 0  0.3 0.21 0  0 0.225 0  0.015 0.225 0  0.03 0.225 0  0.045 0.225 0  0.06 0.225 0  0.075 0.225 0  0.09 0.225 0  0.105 0.225 0  0.12 0.225 0  0.135 0.225 0  0.15 0.225 0  0.165 0.225 0  0.18 0.225 0  0.195 0.225 0  0.21 0.225 0  0.225 0.225 0  0.24 0.225 0  0.255 0.225 0  0.27 0.225 0  0.285 0.225 0  0.3 0.225 0  0 0.24 0  0.015 0.24 0  0.03 0.24 0  0.045 0.24 0  0.06 0.24 0  0.075 0.24 0  0.09 0.24 0  0.105 0.24 0  0.12 0.24 0  0.135 0.24 0  0.15 0.24 0  0.165 0.24 0  0.18 0.24 0  0.195 0.24 0  0.21 0.24 0  0.225 0.24 0  0.24 0.24 0  0.255 0.24 0  0.27 0.24 0  0.285 0.24 0  0.3 0.24 0  0 0.255 0  0.015 0.255 0  0.03 0.255 0  0.045 0.255 0  0.06 0.255 0  0.075 0.255 0  0.09 0.255 0  0.105 0.255 0  0.12 0.255 0  0.135 0.255 0  0.15 0.255 0  0.165 0.255 0  0.18 0.255 0  0.195 0.255 0  0.21 0.255 0  0.225 0.255 0  0.24 0.255 0  0.255 0.255 0  0.27 0.255 0  0.285 0.255 0  0.3 0.255 0  0 0.27 0  0.015 0.27 0  0.03 0.27 0  0.045 0.27 0  0.06 0.27 0  0.075 0.27 0  0.09 0.27 0  0.105 0.27 0  0.12 0.27 0  0.135 0.27 0  0.15 0.27 0  0.165 0.27 0  0.18 0.27 0  0.195 0.27 0  0.21 0.27 0  0.225 0.27 0  0.24 0.27 0  0.255 0.27 0  0.27 0.27 0  0.285 0.27 0  0.3 0.27 0  0 0.285 0  0.015 0.285 0  0.03 0.285 0  0.045 0.285 0  0.06 0.285 0  0.075 0.285 0  0.09 0.285 0  0.105 0.285 0  0.12 0.285 0  0.135 0.285 0  0.15 0.285 0  0.165 0.285 0  0.18 0.285 0  0.195 0.285 0  0.21 0.285 0  0.225 0.285 0  0.24 0.285 0  0.255 0.285 0  0.27 0.285 0  0.285 0.285 0  0.3 0.285 0  0 0.3 0  0.015 0.3 0  0.03 0.3 0  0.045 0.3 0  0.06 0.3 0  0.075 0.3 0  0.09 0.3 0  0.105 0.3 0  0.12 0.3 0  0.135 0.3 0  0.15 0.3 0  0.165 0.3 0  0.18 0.3 0  0.195 0.3 0  0.21 0.3 0  0.225 0.3 0  0.24 0.3 0  0.255 0.3 0  0.27 0.3 0  0.285 0.3 0  0.3 0.3 0  0 0 0.00075  0.015 0 0.00075  0.03 0 0.00075  0.045 0 0.00075  0.06 0 0.00075  0.075 0 0.00075  0.09 0 0.00075  0.105 0 0.00075  0.12 0 0.00075  0.135 0 0.00075  0.15 0 0.00075  0.165 0 0.00075  0.18 0 0.00075  0.195 0 0.00075  0.21 0 0.00075  0.225 0 0.00075  0.24 0 0.00075  0.255 0 0.00075  0.27 0 0.00075  0.285 0 0.00075  0.3 0 0.00075  0 0.015 0.00075  0.015 0.015 0.00075  0.03 0.015 0.00075  0.045 0.015 0.00075  0.06 0.015 0.00075  0.075 0.015 0.00075  0.09 0.015 0.00075  0.105 0.015 0.00075  0.12 0.015 0.00075  0.135 0.015 0.00075  0.15 0.015 0.00075  0.165 0.015 0.00075  0.18 0.015 0.00075  0.195 0.015 0.00075  0.21 0.015 0.00075  0.225 0.015 0.00075  0.24 0.015 0.00075  0.255 0.015 0.00075  0.27 0.015 0.00075  0.285 0.015 0.00075  0.3 0.015 0.00075  0 0.03 0.00075  0.015 0.03 0.00075  0.03 0.03 0.00075  0.045 0.03 0.00075  0.06 0.03 0.00075  0.075 0.03 0.00075  0.09 0.03 0.00075  0.105 0.03 0.00075  0.12 0.03 0.00075  0.135 0.03 0.00075  0.15 0.03 0.00075  0.165 0.03 0.00075  0.18 0.03 0.00075  0.195 0.03 0.00075  0.21 0.03 0.00075  0.225 0.03 0.00075  0.24 0.03 0.00075  0.255 0.03 0.00075  0.27 0.03 0.00075  0.285 0.03 0.00075  0.3 0.03 0.00075  0 0.045 0.00075  0.015 0.045 0.00075  0.03 0.045 0.00075  0.045 0.045 0.00075  0.06 0.045 0.00075  0.075 0.045 0.00075  0.09 0.045 0.00075  0.105 0.045 0.00075  0.12 0.045 0.00075  0.135 0.045 0.00075  0.15 0.045 0.00075  0.165 0.045 0.00075  0.18 0.045 0.00075  0.195 0.045 0.00075  0.21 0.045 0.00075  0.225 0.045 0.00075  0.24 0.045 0.00075  0.255 0.045 0.00075  0.27 0.045 0.00075  0.285 0.045 0.00075  0.3 0.045 0.00075  0 0.06 0.00075  0.015 0.06 0.00075  0.03 0.06 0.00075  0.045 0.06 0.00075  0.06 0.06 0.00075  0.075 0.06 0.00075  0.09 0.06 0.00075  0.105 0.06 0.00075  0.12 0.06 0.00075  0.135 0.06 0.00075  0.15 0.06 0.00075  0.165 0.06 0.00075  0.18 0.06 0.00075  0.195 0.06 0.00075  0.21 0.06 0.00075  0.225 0.06 0.00075  0.24 0.06 0.00075  0.255 0.06 0.00075  0.27 0.06 0.00075  0.285 0.06 0.00075  0.3 0.06 0.00075  0 0.075 0.00075  0.015 0.075 0.00075  0.03 0.075 0.00075  0.045 0.075 0.00075  0.06 0.075 0.00075  0.075 0.075 0.00075  0.09 0.075 0.00075  0.105 0.075 0.00075  0.12 0.075 0.00075  0.135 0.075 0.00075  0.15 0.075 0.00075  0.165 0.075 0.00075  0.18 0.075 0.00075  0.195 0.075 0.00075  0.21 0.075 0.00075  0.225 0.075 0.00075  0.24 0.075 0.00075  0.255 0.075 0.00075  0.27 0.075 0.00075  0.285 0.075 0.00075  0.3 0.075 0.00075  0 0.09 0.00075  0.015 0.09 0.00075  0.03 0.09 0.00075  0.045 0.09 0.00075  0.06 0.09 0.00075  0.075 0.09 0.00075  0.09 0.09 0.00075  0.105 0.09 0.00075  0.12 0.09 0.00075  0.135 0.09 0.00075  0.15 0.09 0.00075  0.165 0.09 0.00075  0.18 0.09 0.00075  0.195 0.09 0.00075  0.21 0.09 0.00075  0.225 0.09 0.00075  0.24 0.09 0.00075  0.255 0.09 0.00075  0.27 0.09 0.00075  0.285 0.09 0.00075  0.3 0.09 0.00075  0 0.105 0.00075  0.015 0.105 0.00075  0.03 0.105 0.00075  0.045 0.105 0.00075  0.06 0.105 0.00075  0.075 0.105 0.00075  0.09 0.105 0.00075  0.105 0.105 0.00075  0.12 0.105 0.00075  0.135 0.105 0.00075  0.15 0.105 0.00075  0.165 0.105 0.00075  0.18 0.105 0.00075  0.195 0.105 0.00075  0.21 0.105 0.00075  0.225 0.105 0.00075  0.24 0.105 0.00075  0.255 0.105 0.00075  0.27 0.105 0.00075  0.285 0.105 0.00075  0.3 0.105 0.00075  0 0.12 0.00075  0.015 0.12 0.00075  0.03 0.12 0.00075  0.045 0.12 0.00075  0.06 0.12 0.00075  0.075 0.12 0.00075  0.09 0.12 0.00075  0.105 0.12 0.00075  0.12 0.12 0.00075  0.135 0.12 0.00075  0.15 0.12 0.00075  0.165 0.12 0.00075  0.18 0.12 0.00075  0.195 0.12 0.00075  0.21 0.12 0.00075  0.225 0.12 0.00075  0.24 0.12 0.00075  0.255 0.12 0.00075  0.27 0.12 0.00075  0.285 0.12 0.00075  0.3 0.12 0.00075  0 0.135 0.00075  0.015 0.135 0.00075  0.03 0.135 0.00075  0.045 0.135 0.00075  0.06 0.135 0.00075  0.075 0.135 0.00075  0.09 0.1
[...]
<PointData  Scalars="f_1662"> 
<DataArray  type="Float64"  Name="f_1662"  format="ascii">4.7141010490451377e-10  -6.6697842867426103e-10  -4.0878179023141238e-10  -1.0878717940152215e-10  3.0809686749488404e-12  2.6396049552996978e-11  2.7592282630204692e-11  2.6325773453087070e-11  2.7110414426788772e-11  3.3045398544616999e-11  2.4931488400008674e-11  -1.0418416801006131e-10  -6.4513920090551998e-11  2.2243198471604105e-09  -5.5219545725739319e-09  5.1781436305871732e-09  -3.0352988591847523e-10  -1.7365002625879972e-09  1.6875254930733741e-10  -1.3286683452277835e-10  6.6229145870353820e-10  -1.0261080129705906e-09  -3.9582390063781265e-09  -1.6047552320918657e-09  -2.1043285717080905e-10  1.6579791870171940e-10  2.1134552880419784e-10  2.0224365650381021e-10  1.9562515243153006e-10  1.9610116913446038e-10  1.9466635660908217e-10  1.3161124288505625e-10  -4.0545266162480114e-11  8.1123054115275500e-10  4.2660439921003539e-09  -1.7241574624534597e-08  2.3474322508685566e-08  -6.7677900283768758e-09  -6.9472779033598159e-09  1.9796203876183226e-09  4.6218723704611181e-10  2.8836983471663879e-09  -4.1622276499812625e-08  -3.7967936811440979e-08  -9.9648059971722512e-09  9.8586124286135783e-10  3.0422051468168255e-09  3.0523695925789770e-09  2.9085830894419114e-09  2.8463111099916596e-09  2.8229194539509180e-09  2.7564357084781740e-09  2.5424244377746802e-09  2.8872176493303021e-09  7.8949315615382508e-09  9.0657754467946374e-09  -8.5579365135304211e-08  1.8084151139926759e-07  -9.7160782718120802e-08  -4.1753713672881149e-08  3.0030770311277632e-08  1.2494096230242175e-08  2.4696577014296742e-08  -6.2894442264767127e-07  -3.1175465970791671e-07  -3.4436694155352123e-08  3.9367268891804294e-08  4.6339589169898194e-08  4.3896688460131583e-08  4.2404524476450628e-08  4.1904697274018550e-08  4.1715174560692052e-08  4.1521395610770744e-08  4.1861364297878668e-08  4.6733624027480038e-08  5.9082234504779108e-08  -1.0513075603773888e-09  -3.0602145732258035e-07  1.2547257946074044e-06  -1.0690580834090239e-06  -1.1338252778991338e-07  3.8402963501626830e-07  1.6430294977602701e-07  1.9911858173933240e-07  -7.1931342933067466e-06  -2.0286857464406383e-06  3.0408247685673141e-07  6.8937596201165958e-07  6.6837885248491935e-07  6.3520023615113617e-07  6.2292010585322527e-07  6.1965040599589873e-07  6.1896014724602938e-07  6.1966074256113600e-07  6.2464238525776042e-07  6.3698772319453365e-07  5.9996833551495663e-07  2.1154895982943681e-07  -4.2364646398216502e-08  7.5855789482260792e-06  -9.7768331221426859e-06  1.8605187044809556e-06  4.2977457013453930e-06  1.7012231790407385e-06  1.4864722967899249e-06  -6.8101622030385591e-05  -6.9562969866936536e-06  9.3135088076091828e-06  1.0257328395046611e-05  9.5841303398909104e-06  9.2750640575945018e-06  9.1895778762372369e-06  9.1710564433588529e-06  9.1686545242091381e-06  9.1714221331767153e-06  9.1724967714288546e-06  9.1123528764418140e-06  8.7239259231612833e-06  7.9199721169856707e-06  1.2564868072791202e-05  3.9428107124101083e-05  -7.4137510522048246e-05  4.4395551494103637e-05  4.3214229668617400e-05  1.5161385648375700e-05  1.0207959507327698e-05  -5.1985701436484328e-04  7.4012223682097119e-05  1.5643708730809629e-04  1.4630916829959216e-04  1.3852830936235039e-04  1.3621240482991501e-04  1.3570229331464479e-04  1.3560729530203938e-04  1.3558794744482114e-04  1.3556456640801805e-04  1.3546965139888737e-04  1.3516461703299610e-04  1.3491058171764901e-04  1.3955535931760987e-04  1.7026179441676040e-04  1.9689881732004011e-04  -4.1760960734153751e-04  6.3262013665180280e-04  3.9419652228938988e-04  1.1911391883243890e-04  6.3602641131755465e-05  -2.4861793329564209e-03  2.1848880177728330e-03  2.2725262615846255e-03  2.0793491195861455e-03  2.0143102949171003e-03  2.0000236737996464e-03  1.9974812765421062e-03  1.9970887847095184e-03  1.9970397354537751e-03  1.9970728743183017e-03  1.9973383556016692e-03  1.9988988265425096e-03  2.0065266918125467e-03  2.0333915785735786e-03  2.0600336659734849e-03  1.6379214988093982e-03  -6.7767657254690994e-04  7.3493502174583258e-03  3.2504749362196510e-03  8.2175151684300482e-04  3.5038548027532481e-04  1.1439801808520996e-02  3.5877961164625660e-02  3.1457905613341261e-02  2.9512724856031194e-02  2.9091717158990685e-02  2.9021590325353498e-02  2.9011635978882223e-02  2.9010386922704624e-02  2.9010244262730901e-02  2.9010200664498859e-02  2.9009921612225525e-02  2.9007598616820843e-02  2.8990240809910455e-02  2.8876687998162349e-02  2.8262184743307685e-02  2.5946510197508130e-02  2.4761793528493063e-02  7.4149886691012343e-02  2.3707173804018263e-02  4.8268429625435844e-03  1.6229824249298557e-03  5.2561545635184792e-01  4.8307465753885831e-01  4.1765231855797136e-01  4.0417549694898930e-01  4.0219445336853560e-01  4.0195132697500380e-01  4.0192546038555038e-01  4.0192309823290945e-01  4.0192292568066085e-01  4.0192291909584033e-01  4.0192297688389844e-01  4.0192393726385012e-01  4.0193557705783439e-01  4.0205405966602231e-01  4.0310398675244363e-01  4.1113022038201047e-01  4.6051813963672983e-01  6.4099550447999376e-01  1.4349480036498538e-01  2.2170576409829622e-02  5.6335830784857597e-03  7.9161081982294776e+00  5.1065769113506914e+00  4.6256837212551893e+00  4.5718857085116875e+00  4.5669617171271391e+00  4.5665976413150453e+00  4.5665806534788889e+00  4.5665813233039181e+00  4.5665816383479267e+00  4.5665816987487453e+00  4.5665817688059649e+00  4.5665822286862809e+00  4.5665845216656500e+00  4.5665829371128952e+00  4.5663440662926220e+00  4.5622480570695876e+00  4.5118238707511340e+00  4.0143605071188828e+00  5.7680905793792203e-01  5.9682033224068551e-02  9.7289409041914406e-03  1.3231277339549004e+00  3.4753888454144977e-01  4.1096230552848534e-01  4.4570268043582323e-01  4.5234365358612211e-01  4.5329811339871234e-01  4.5341459846254423e-01  4.5342704786610927e-01  4.5342820290177677e-01  4.5342829194256862e-01  4.5342829807461127e-01  4.5342819260367745e-01  4.5342620615542051e-01  4.5340103443470231e-01  4.5313740983255574e-01  4.5074290720746274e-01  4.3191127580134192e-01  3.1043041643495672e-01  -2.0761841225030248e-01  -5.6550472804649123e-02  -1.8358044227559468e-02  1.5696151285262153e-01  -2.1796892459656301e-02  3.0109951021063359e-02  3.5245257676487576e-02  3.4361800970363371e-02  3.3969872043168210e-02  3.3884433476325880e-02  3.3870054682098298e-02  3.3867985752880851e-02  3.3867720720142935e-02  3.3867677623301888e-02  3.3867529016622606e-02  3.3866101374421878e-02  3.3853617379670783e-02  3.3755627642245288e-02  3.3072730240216584e-02  2.8987572151835877e-02  9.7323774807747052e-03  -4.4166325026873329e-02  2.4240961286754667e-03  5.3734972587018157e-03  1.5882966531465325e-02  -9.6750433684049987e-03  4.0449391540946459e-03  2.9073277644904223e-03  2.3847063531793936e-03  2.3393019311454587e-03  2.3484537627495670e-03  2.3529081881170028e-03  2.3539968950189896e-03  2.3542016631488043e-03  2.3542268471578765e-03  2.3541624868954744e-03  2.3536186594150595e-03  2.3497070901567552e-03  2.3243510642907612e-03  2.1795823804104707e-03  1.4862226873589587e-03  -1.0026796931723919e-03  -5.5127112405636749e-03  2.4225023090407682e-03  8.1066873860535359e-04  1.4021573713434939e-03  -1.7606390399254627e-03  8.4905509170247139e-04  1.9364323202846026e-04  1.3450682102428721e-04  1.5411250310926188e-04  1.5989678927702338e-04  1.6046136574418893e-04  1.6037754186702354e-04  1.6032662018972656e-04  1.6030973013805104e-04  1.6028388948038084e-04  1.6012781233963740e-04  1.5916614018589135e-04  1.5383600820024655e-04  1.2818302323992176e-04  2.7455829248414084e-05  -2.5091351972409863e-04  -5.3186654179257639e-04  5.2847845776434355e-04  -8.1867508069336813e-05  1.0291932681930177e-04  -2.4679744316359674e-04  1.6851519493633432e-04  -9.0883651670265982e-06  3.9356848819146626e-06  1.0947454630260344e-05  1.1178903435214675e-05  1.0924008703356418e-05  1.0854093450821379e-05  1.0845897370594301e-05  1.0845558481980067e-05  1.0839926123527719e-05  1.0803069156912654e-05  1.0601927068300576e-05  9.6311597908125039e-06  5.6340229155698117e-06  -7.3496092092457536e-06  -3.4469652006530084e-05  -3.9968747621395789e-05  7.9728497587293383e-05  -5.3198723944501305e-05  5.0383212541813751e-06  -2.9572763596345152e-05  2.8885259333975442e-05  -7.5754847386331826e-06  2.5806392131495682e-07  1.0991321073605748e-06  8.0252047622461937e-07  7.2889262835706734e-07  7.2834172261484991e-07  7.3149115320741698e-07  7.3212915550927140e-07  7.3080696008223642e-07  7.2308350692503536e-07  6.8574875604181314e-07  5.2736111577976127e-07  -3.4299092231680575e-08  -1.5384137561851545e-06  -3.7585599841914532e-06  -1.8330527678801199e-06  9.5827326706377886e-06  -1.2992303154672886e-05  -1.1451419412617590e-07  -3.1054188142727499e-06  4.3496450363941424e-06  -2.0029756337161678e-06  2.6268603368469256e-07  1.4017959640761289e-07  4.5288571524326843e-08  4.4455555139166473e-08  4.8653211943905892e-08  4.9478574109610053e-08  4.9420409693479158e-08  4.9081088974797163e-08  4.7617600054340467e-08  4.1324681841140545e-08  1.7734043105230280e-08  -5.4317244001522364e-08  -2.1044388830899065e-07  -3.4254291661026928e-07  7.5715729769081733e-08  9.2839390876123296e-07  -2.3330461084507976e-06  -7.4189545063699017e-08  -2.8213050526070867e-07  5.8726432207448102e-07  -3.9760356384803702e-07  1.0250955308339881e-07  1.1356573970410977e-08  -1.5894204575269463e-09  2.5035084131349702e-09  3.4541704400784880e-09  3.3979131155742365e-09  3.3307335570188360e-09  3.2635725548818265e-09  3.0129055089012280e-09  2.0362388234301609e-09  -1.2054119617893837e-09  -9.6736485789952207e-09  -2.3865872200757653e-08  -2.4965227465971765e-08  3.2430484531948955e-08  6.4816223968537155e-08  -3.4973368688372056e-07  -1.2991583547359863e-08  -2.1102577260037475e-08  7.3090688117456599e-08  -6.8394568750573225e-08  2.7288671032678033e-08  -1.9104310485326783e-09  -1.0271749768473764e-09  2.9664959075499927e-10  2.9693056716193730e-10  2.3300691479036706e-10  2.2119995368789311e-10  2.1262441677804593e-10  1.7370697109118098e-10  3.3300473588354595e-11  -3.8106982593355175e-10  -1.2972679660370290e-09  -2.3696595937836249e-09  -1.1259867557062392e-09  5.1391042665673497e-09  1.1177659635181114e-09  -4.6200141151702620e-08  -3.7089346547849505e-09  -1.8401045051853515e-09  1.6128613604173680e-08  -2.0463051502378509e-08  1.1365122412689969e-08  -2.3370456452607995e-09  -2.4198385514517173e-10  1.6164673241847218e-10  5.1773082577311988e-11  2.6033684849904101e-11  2.7747527164442583e-11  2.6096939882496222e-11  1.4176504669568741e-11  -2.4218898915408261e-11  -1.2258003850664369e-10  -2.9825516786079513e-10  -3.9550929087760477e-10  1.0129766379658716e-10  1.1346146356232034e-09  -1.2660020239424951e-09  -9.5939790612094923e-09  4.6983843995579121e-10  -6.7027202996131850e-10  -4.0968644988877529e-10  -1.0873138645083593e-10  3.3009259124496319e-12  2.6605872512231521e-11  2.7786104912025140e-11  2.6515017196480852e-11  2.7299929065439551e-11  3.3211553354315454e-11  2.4992727128026268e-11  -1.0393278447563648e-10  -6.2419208320507851e-11  2.2209599207353034e-09  -5.5255195372550518e-09  5.1927951336315265e-09  -3.1208595172895271e-10  -1.7402236264538228e-09  1.7077556875805487e-10  -1.3160559762287965e-10  6.6670300737264964e-10  -1.0417294183494980e-09  -3.9673235265014339e-09  -1.6053128252478961e-09  -2.0904939507876079e-10  1.6720910552849658e-10  2.1262318122860246e-10  2.0346567355077754e-10  1.9683203512545052e-10  1.9728810011026425e-10  1.9577571140191303e-10  1.3274557966951962e-10  -3.7895059763466959e-11  8.1562569610253783e-10  4.2423879964731397e-09  -1.7206283769545718e-08  2.3482581677805427e-08  -6.8015389451877334e-09  -6.9447976693631280e-09  1.9896935197017852e-09  4.7071439899838714e-10  2.8917819171256983e-09  -4.1754717106136237e-08  -3.8022749509266223e-08  -9.9524501618043545e-09  1.0072802727520893e-09  3.0618895080020571e-09  3.0707727662376512e-09  2.9265806313261452e-09  2.8641988311701140e-09  2.8407268147136528e-09  2.7742672471775222e-09  2.5616417023316244e-09  2.9113070819642853e-09  7.9056437194689832e-09  8.9715273621767123e-09  -8.5279988532918167e-08  1.8078015192841023e-07  -9.7414897311773769e-08  -4.1649305132504731e-08  3.0149651087171694e-08  1.2571144193151661e-08  2.4755169917389989e-08  -6.2986460948651237e-07  -3.1189481616922206e-07  -3.4134006450875183e-08  3.9674662447449033e-08  4.6618647832493348e-08  4.4164951270263689e-08  4.2670205646163398e-08  4.2169913840993624e-08  4.1980526031720826e-08  4.1788244655977878e-08  4.2133084793280360e-08  4.6999813641731451e-08  5.9231041219480576e-08  -1.0836631826974960e-09  -3.0387054038543004e-07  1.2533861036440921e-06  -1.0705130350729561e-06  -1.1167495090320221e-07  3.8525677897066440e-07  1.6492921266601243e-07  1.9950457255048705e-07  -7.1972105173976221e-06  -2.0259008507613368e-06  3.0888893288371249e-07  6.9368166774401110e-07  6.7239835669272745e-07  6.3914513120508655e-07  6.2685164450599007e-07  6.2358061148824442e-07  6.2289147596064621e-07  6.2359381195154278e-07  6.2856208983645416e-07  6.4079004682481524e-07  6.0343250267221537e-07  2.1604923111972249e-07  -2.8904409013098680e-08  7.5717351807847438e-06  -9.7793131157568476e-06  1.8819933662425130e-06  4.3089939531104634e-06  1.7057988302680754e-06  1.4887082292027290e-06  -6.8086266347848235e-05  -6.8872764992895596e-06  9.3817251124531753e-06  1.0318233295826442e-05  9.6427997107625484e-06  9.3333183101407360e-06  9.2477808943900055e-06  9.2292561843741016e-06  9.2268495929356756e-06  9.2295897536222305e-06  9.2305595278579211e-06  9.1702344509482001e-06  8.7828435540895274e-06  7.9884006387597678e-06  1.2649433073244562e-05  3.9342026309584540e-05  -7.4048851353120983e-05  4.4629365348005330e-05  4.3306604082007705e-05  1.5190911636073670e-05  1.0218589312816493e-05  -5.1913005924360180e-04  7.5114975317905715e-05  1.5738283954506161e-04  1.4718505997885194e-04  1.3939057598992801e-04  1.3707304183198626e-04  1.3656286838379213e-04  1.3646789965618780e-04  1.3644856928717925e-04  1.3642524895810643e-04  1.3633072784534025e-04  1.3602787673874407e-04  1.3578280179551402e-04  1.4044371746663829e-04  1.7104921612221615e-04  1.9693688907650365e-04  -4.1582158763692602e-04  6.3492290822938060e-04  3.9487008786529768e-04  1.1927455878796735e-04  6.3635466047379179e-05  -2.4729643279891682e-03  2.2003863361770124e-03  2.2857406393402423e-03  2.0920668567110108e-03  2.0269714510291218e-03  2.0126832738438308e-03  2.0101419040522641e-03  2.0097497347425987e-03  2.0097007502435753e-03  2.0097338727790588e-03  2.0099989951207530e-03  2.0115559769904069e-03  2.0191565426453373e-03  2.0458507878870942e-03  2.0717435062565519e-03  1.6486497723947153e-03  -6.5422855797736762e-04  7.3705054077420930e-03  3.2547081037241597e-03  8.2239854065929935e-04  3.5034272421511216e-04  1.1644711381332476e-02  3.6085736129938255e-02  3.1643474638535625e-02  2.9695932294148488e-02  2.9274885519113995e-02  2.9204798597093334e-02  2.9194855012723293e-02  2.9193607898750321e-02  2.9193465522157350e-02  2.9193421921316701e-02  2.9193142682392599e-02  2.9190819574337418e-02  2.9173473120689714e-02  2.9060094962843556e-02  2.8447341387447773e-02  2.6144386408648329e-02  2.5013446863542028e-02  7.4342227598189300e-02  2.3728772855871150e-02  4.8277505409141611e-03  1.6214142771842858e-03  5.2895160638618355e-01  4.8573487865103426e-01  4.2015526643624390e-01  4.0667598769994640e-01  4.0469660034028276e-01  4.0445384908121196e-01  4.0442803996759169e-01  4.0442568513398358e-01  4.0442551339626964e-01  4.0442550692301427e-01  4.0442556506528676e-01  4.0442652856497630e-01  4.0443819217722765e-01  4.0455681970803514e-01  4.0560726208743103e-01  4.1363120814463161e-01  4.6295982763479981e-01  6.4299610457454870e-01  1.4357990396880210e-01  2.2158500034175629e-02  5.6209313842740267e-03  7.9797579783750541e+00  5.1339487078182877e+00  4.6522912838669708e+00  4.5985523888105098e+00  4.5936409235061486e+00  4.5932783651019111e+00  4.5932615272059083e+00  4.5932622093695059e+00  4.5932625251624204e+00  4.5932625855833997e+00  4.5932626556742990e+00  4.5932631152228529e+00  4.5932653987458343e+00  4.5932636760930929e+00  4.5930231872072218e+00  4.5889102769897923e+00  4.5383153218039949e+00  4.0389361996195792e+00  5.7719945011806773e-01  5.9579755105612253e-02  9.6787269858662813e-03  1.3239926349122260e+00  3.4488380114173817e-01  4.0970383123885906e-01  4.4460695657086968e-01  4.5125897785263047e-01  4.5221368961834024e-01  4.5233009831842547e-01  4.5234252960715471e-01  4.5234368190255858e-01  4.5234377060081904e-01  4.5234377662656683e-01  4.5234367032506223e-01  4.5234167561005045e-01  4.5231643104961583e-01  4.5205223886541024e-01  4.4965390081892337e-01  4.3080072497726024e-01  3.0922112988424638e-01  -2.0931886910181410e-01  -5.6718329041619331e-02  -1.8344301618824964e-02  1.5663002646718888e-01  -2.2248722949906114e-02  2.9985845811132065e-02  3.5085531226655947e-02  3.4190167848403993e-02  3.3796429478408586e-02  3.3710788290942491e-02  3.3696392467217715e-02  3.3694322779077905e-02  3.3694057821135374e-02  3.3694014707928349e-02  3.3693865730316838e-02  3.3692435246644573e-02  3.3679932314733430e-02  3.3581836564767924e-02  3.2898505266874892e-02  2.8812827065986930e-02  9.5676306873317667e-03  -4.4246694786002717e-02  2.5026999128307586e-03  5.3937851339405140e-03  1.5827724226648486e-02  -9.7164550049227347e-03  4.0491407393482750e-03  2.8937468421833374e-03  2.3701430030696000e-03  2.3251398968058483e-03  2.3344179783250942e-03  2.3388955737631105e-03  2.3399875719494422e-03  2.3401927210415234e-03  2.3402179248470630e-03  2.3401534593503423e-03  2.3396089830395204e-03  2.3356941355651860e-03  2.3103263623434115e-03  2.1655529787032710e-03  1.4725491134256097e-03  -1.0130711973991232e-03  -5.5086563708304755e-03  2.4354266607831410e-03  8.0803614458944614e-04  1.3956750180713631e-03  -1.7632882317044820e-03  8.5130793241005524e-04  1.9197940224992239e-04  1.3335765806190089e-04  1.5311826298874099e-04  1.5890922485186981e-04  1.5946961526194298e-04  1.5938434546487520e-04  1.5933312027880019e-04  1.5931617633561915e-04  1.5929030604912395e-04  1.5913412059955236e-04  1.5817208860591573e-04  1.5284187250678329e-04  1.2719965998280182e-04  2.6573989078832594e-05  -2.5124301653151667e-04  -5.3058836403463894e-04  5.2961732154993806e-04  -8.3108639152006824e-05  1.0227074906761553e-04  -2.4684580310118325e-04  1.6887153845513071e-04  -9.3701384145966027e-06  3.8670642570387789e-06  1.0888385411447599e-05  1.1112504012414159e-05  1.0855969956229514e-05  1.0785967343145904e-05  1.0777813849520908e-05  1.0777491042490388e-05  1.0771858972114393e-05  1.0734991013129350e-05  1.0533846712015058e-05  9.5634163633910895e-06  5.5694842802472696e-06  -7.3952406431771232e-06  -3.4441173406125787e-05  -3.9794589402554959e-05  7.9774073023894114e-05  -5.3440247837456697e-05  4.9820906813669725e-06  -2.9552119683575612e-05  2.8924035153890069e-05  -7.6224021640905291e-06  2.6129151347760949e-07  1.0963756270633661e-06  7.9775959446413020e-07  7.2416716382633431e-07  7.2370722876828230e-07  7.2687625487130195e-07  7.2751555730860165e-07  7.2619255307338113e-07  7.1846882829782323e-07  6.8114503125642483e-07  5.2286266445886992e-07  -3.8148886646773967e-08  -1.5393711881416024e-06  -3.7509184822249998e-06  -1.8149657819162970e-06  9.5771443357426901e-06  -1.3026677068398995e-05  -1.1848309742568100e-07  -3.1007571436014625e-06  4.3524880028161795e-06  -2.0098248685253508e-06  2.6496558147588178e-07  1.3989002629990081e-07  4.4853910448510309e-08  4.4126940878904642e-08  4.8343954516038165e-08  4.9168180329057740e-08  4.9108877051947489e-08  4.8769303661708993e-08  4.7306163155100033e-08  4.1016824988676536e-08  1.7448847168368793e-08  -5.4493701075630307e-08  -2.1023287927379052e-07  -3.4145621498518658e-07  7.7227124495400924e-08  9.2673348466158099e-07  -2.3369969088432874e-06  -7.4357303530592724e-08  -2.8143971818065349e-07  5.8729274263609253e-07  -3.98