<?xml version="1.0"?>
<VTKFile type="UnstructuredGrid"  version="0.1"  >
<UnstructuredGrid>
<Piece  NumberOfPoints="9261" NumberOfCells="48000">
<Points>
<DataArray  type="Float64"  NumberOfComponents="3"  format="ascii">0 0 0  0.015 0 0  0.03 0 0  0.045 0 0  0.06 0 0  0.075 0 0  0.09 0 0  0.105 0 0  0.12 0 0  0.135 0 0  0.15 0 0  0.165 0 0  0.18 0 0  0.195 0 0  0.21 0 0  0.225 0 0  0.24 0 0  0.255 0 0  0.27 0 0  0.285 0 0  0.3 0 0  0 0.015 0  0.015 0.015 0  0.03 0.015 0  0.045 0.015 0  0.06 0.015 0  0.075 0.015 0  0.09 0.015 0  0.105 0.015 0  0.12 0.015 0  0.135 0.015 0  0.15 0.015 0  0.165 0.015 0  0.18 0.015 0  0.195 0.015 0  0.21 0.015 0  0.225 0.015 0  0.24 0.015 0  0.255 0.015 0  0.27 0.015 0  0.285 0.015 0  0.3 0.015 0  0 0.03 0  0.015 0.03 0  0.03 0.03 0  0.045 0.03 0  0.06 0.03 0  0.075 0.03 0  0.09 0.03 0  0.105 0.03 0  0.12 0.03 0  0.135 0.03 0  0.15 0.03 0  0.165 0.03 0  0.18 0.03 0  0.195 0.03 0  0.21 0.03 0  0.225 0.03 0  0.24 0.03 0  0.255 0.03 0  0.27 0.03 0  0.285 0.03 0  0.3 0.03 0  0 0.045 0  0.015 0.045 0  0.03 0.045 0  0.045 0.045 0  0.06 0.045 0  0.075 0.045 0  0.09 0.045 0  0.105 0.045 0  0.12 0.045 0  0.135 0.045 0  0.15 0.045 0  0.165 0.045 0  0.18 0.045 0  0.195 0.045 0  0.21 0.045 0  0.225 0.045 0  0.24 0.045 0  0.255 0.045 0  0.27 0.045 0  0.285 0.045 0  0.3 0.045 0  0 0.06 0  0.015 0.06 0  0.03 0.06 0  0.045 0.06 0  0.06 0.06 0  0.075 0.06 0  0.09 0.06 0  0.105 0.06 0  0.12 0.06 0  0.135 0.06 0  0.15 0.06 0  0.165 0.06 0  0.18 0.06 0  0.195 0.06 0  0.21 0.06 0  0.225 0.06 0  0.24 0.06 0  0.255 0.06 0  0.27 0.06 0  0.285 0.06 0  0.3 0.06 0  0 0.075 0  0.015 0.075 0  0.03 0.075 0  0.045 0.075 0  0.06 0.075 0  0.075 0.075 0  0.09 0.075 0  0.105 0.075 0  0.12 0.075 0  0.135 0.075 0  0.15 0.075 0  0.165 0.075 0  0.18 0.075 0  0.195 0.075 0  0.21 0.075 0  0.225 0.075 0  0.24 0.075 0  0.255 0.075 0  0.27 0.075 0  0.285 0.075 0  0.3 0.075 0  0 0.09 0  0.015 0.09 0  0.03 0.09 0  0.045 0.09 0  0.06 0.09 0  0.075 0.09 0  0.09 0.09 0  0.105 0.09 0  0.12 0.09 0  0.135 0.09 0  0.15 0.09 0  0.165 0.09 0  0.18 0.09 0  0.195 0.09 0  0.21 0.09 0  0.225 0.09 0  0.24 0.09 0  0.255 0.09 0  0.27 0.09 0  0.285 0.09 0  0.3 0.09 0  0 0.105 0  0.015 0.105 0  0.03 0.105 0  0.045 0.105 0  0.06 0.105 0  0.075 0.105 0  0.09 0.105 0  0.105 0.105 0  0.12 0.105 0  0.135 0.105 0  0.15 0.105 0  0.165 0.105 0  0.18 0.105 0  0.195 0.105 0  0.21 0.105 0  0.225 0.105 0  0.24 0.105 0  0.255 0.105 0  0.27 0.105 0  0.285 0.105 0  0.3 0.105 0  0 0.12 0  0.015 0.12 0  0.03 0.12 0  0.045 0.12 0  0.06 0.12 0  0.075 0.12 0  0.09 0.12 0  0.105 0.12 0  0.12 0.12 0  0.135 0.12 0  0.15 0.12 0  0.165 0.12 0  0.18 0.12 0  0.195 0.12 0  0.21 0.12 0  0.225 0.12 0  0.24 0.12 0  0.255 0.12 0  0.27 0.12 0  0.285 0.12 0  0.3 0.12 0  0 0.135 0  0.015 0.135 0  0.03 0.135 0  0.045 0.135 0  0.06 0.135 0  0.075 0.135 0  0.09 0.135 0  0.105 0.135 0  0.12 0.135 0  0.135 0.135 0  0.15 0.135 0  0.165 0.135 0  0.18 0.135 0  0.195 0.135 0  0.21 0.135 0  0.225 0.135 0  0.24 0.135 0  0.255 0.135 0  0.27 0.135 0  0.285 0.135 0  0.3 0.135 0  0 0.15 0  0.015 0.15 0  0.03 0.15 0  0.045 0.15 0  0.06 0.15 0  0.075 0.15 0  0.09 0.15 0  0.105 0.15 0  0.12 0.15 0  0.135 0.15 0  0.15 0.15 0  0.165 0.15 0  0.18 0.15 0  0.195 0.15 0  0.21 0.15 0  0.225 0.15 0  0.24 0.15 0  0.255 0.15 0  0.27 0.15 0  0.285 0.15 0  0.3 0.15 0  0 0.165 0  0.015 0.165 0  0.03 0.165 0  0.045 0.165 0  0.06 0.165 0  0.075 0.165 0  0.09 0.165 0  0.105 0.165 0  0.12 0.165 0  0.135 0.165 0  0.15 0.165 0  0.165 0.165 0  0.18 0.165 0  0.195 0.165 0  0.21 0.165 0  0.225 0.165 0  0.24 0.165 0  0.255 0.165 0  0.27 0.165 0  0.285 0.165 0  0.3 0.165 0  0 0.18 0  0.015 0.18 0  0.03 0.18 0  0.045 0.18 0  0.06 0.18 0  0.075 0.18 0  0.09 0.18 0  0.105 0.18 0  0.12 0.18 0  0.135 0.18 0  0.15 0.18 0  0.165 0.18 0  0.18 0.18 0  0.195 0.18 0  0.21 0.18 0  0.225 0.18 0  0.24 0.18 0  0.255 0.18 0  0.27 0.18 0  0.285 0.18 0  0.3 0.18 0  0 0.195 0  0.015 0.195 0  0.03 0.195 0  0.045 0.195 0  0.06 0.195 0  0.075 0.195 0  0.09 0.195 0  0.105 0.195 0  0.12 0.195 0  0.135 0.195 0  0.15 0.195 0  0.165 0.195 0  0.18 0.195 0  0.195 0.195 0  0.21 0.195 0  0.225 0.195 0  0.24 0.195 0  0.255 0.195 0  0.27 0.195 0  0.285 0.195 0  0.3 0.195 0  0 0.21 0  0.015 0.21 0  0.03 0.21 0  0.045 0.21 0  0.06 0.21 0  0.075 0.21 0  0.09 0.21 0  0.105 0.21 0  0.12 0.21 0  0.135 0.21 0  0.15 0.21 0  0.165 0.21 0  0.18 0.21 0  0.195 0.21 0  0.21 0.21 0  0.225 0.21 0  0.24 0.21 0  0.255 0.21 0  0.27 0.21 0  0.285 0.21 0  0.3 0.21 0  0 0.225 0  0.015 0.225 0  0.03 0.225 0  0.045 0.225 0  0.06 0.225 0  0.075 0.225 0  0.09 0.225 0  0.105 0.225 0  0.12 0.225 0  0.135 0.225 0  0.15 0.225 0  0.165 0.225 0  0.18 0.225 0  0.195 0.225 0  0.21 0.225 0  0.225 0.225 0  0.24 0.225 0  0.255 0.225 0  0.27 0.225 0  0.285 0.225 0  0.3 0.225 0  0 0.24 0  0.015 0.24 0  0.03 0.24 0  0.045 0.24 0  0.06 0.24 0  0.075 0.24 0  0.09 0.24 0  0.105 0.24 0  0.12 0.24 0  0.135 0.24 0  0.15 0.24 0  0.165 0.24 0  0.18 0.24 0  0.195 0.24 0  0.21 0.24 0  0.225 0.24 0  0.24 0.24 0  0.255 0.24 0  0.27 0.24 0  0.285 0.24 0  0.3 0.24 0  0 0.255 0  0.015 0.255 0  0.03 0.255 0  0.045 0.255 0  0.06 0.255 0  0.075 0.255 0  0.09 0.255 0  0.105 0.255 0  0.12 0.255 0  0.135 0.255 0  0.15 0.255 0  0.165 0.255 0  0.18 0.255 0  0.195 0.255 0  0.21 0.255 0  0.225 0.255 0  0.24 0.255 0  0.255 0.255 0  0.27 0.255 0  0.285 0.255 0  0.3 0.255 0  0 0.27 0  0.015 0.27 0  0.03 0.27 0  0.045 0.27 0  0.06 0.27 0  0.075 0.27 0  0.09 0.27 0  0.105 0.27 0  0.12 0.27 0  0.135 0.27 0  0.15 0.27 0  0.165 0.27 0  0.18 0.27 0  0.195 0.27 0  0.21 0.27 0  0.225 0.27 0  0.24 0.27 0  0.255 0.27 0  0.27 0.27 0  0.285 0.27 0  0.3 0.27 0  0 0.285 0  0.015 0.285 0  0.03 0.285 0  0.045 0.285 0  0.06 0.285 0  0.075 0.285 0  0.09 0.285 0  0.105 0.285 0  0.12 0.285 0  0.135 0.285 0  0.15 0.285 0  0.165 0.285 0  0.18 0.285 0  0.195 0.285 0  0.21 0.285 0  0.225 0.285 0  0.24 0.285 0  0.255 0.285 0  0.27 0.285 0  0.285 0.285 0  0.3 0.285 0  0 0.3 0  0.015 0.3 0  0.03 0.3 0  0.045 0.3 0  0.06 0.3 0  0.075 0.3 0  0.09 0.3 0  0.105 0.3 0  0.12 0.3 0  0.135 0.3 0  0.15 0.3 0  0.165 0.3 0  0.18 0.3 0  0.195 0.3 0  0.21 0.3 0  0.225 0.3 0  0.24 0.3 0  0.255 0.3 0  0.27 0.3 0  0.285 0.3 0  0.3 0.3 0  0 0 0.00075  0.015 0 0.00075  0.03 0 0.00075  0.045 0 0.00075  0.06 0 0.00075  0.075 0 0.00075  0.09 0 0.00075  0.105 0 0.00075  0.12 0 0.00075  0.135 0 0.00075  0.15 0 0.00075  0.165 0 0.00075  0.18 0 0.00075  0.195 0 0.00075  0.21 0 0.00075  0.225 0 0.00075  0.24 0 0.00075  0.255 0 0.00075  0.27 0 0.00075  0.285 0 0.00075  0.3 0 0.00075  0 0.015 0.00075  0.015 0.015 0.00075  0.03 0.015 0.00075  0.045 0.015 0.00075  0.06 0.015 0.00075  0.075 0.015 0.00075  0.09 0.015 0.00075  0.105 0.015 0.00075  0.12 0.015 0.00075  0.135 0.015 0.00075  0.15 0.015 0.00075  0.165 0.015 0.00075  0.18 0.015 0.00075  0.195 0.015 0.00075  0.21 0.015 0.00075  0.225 0.015 0.00075  0.24 0.015 0.00075  0.255 0.015 0.00075  0.27 0.015 0.00075  0.285 0.015 0.00075  0.3 0.015 0.00075  0 0.03 0.00075  0.015 0.03 0.00075  0.03 0.03 0.00075  0.045 0.03 0.00075  0.06 0.03 0.00075  0.075 0.03 0.00075  0.09 0.03 0.00075  0.105 0.03 0.00075  0.12 0.03 0.00075  0.135 0.03 0.00075  0.15 0.03 0.00075  0.165 0.03 0.00075  0.18 0.03 0.00075  0.195 0.03 0.00075  0.21 0.03 0.00075  0.225 0.03 0.00075  0.24 0.03 0.00075  0.255 0.03 0.00075  0.27 0.03 0.00075  0.285 0.03 0.00075  0.3 0.03 0.00075  0 0.045 0.00075  0.015 0.045 0.00075  0.03 0.045 0.00075  0.045 0.045 0.00075  0.06 0.045 0.00075  0.075 0.045 0.00075  0.09 0.045 0.00075  0.105 0.045 0.00075  0.12 0.045 0.00075  0.135 0.045 0.00075  0.15 0.045 0.00075  0.165 0.045 0.00075  0.18 0.045 0.00075  0.195 0.045 0.00075  0.21 0.045 0.00075  0.225 0.045 0.00075  0.24 0.045 0.00075  0.255 0.045 0.00075  0.27 0.045 0.00075  0.285 0.045 0.00075  0.3 0.045 0.00075  0 0.06 0.00075  0.015 0.06 0.00075  0.03 0.06 0.00075  0.045 0.06 0.00075  0.06 0.06 0.00075  0.075 0.06 0.00075  0.09 0.06 0.00075  0.105 0.06 0.00075  0.12 0.06 0.00075  0.135 0.06 0.00075  0.15 0.06 0.00075  0.165 0.06 0.00075  0.18 0.06 0.00075  0.195 0.06 0.00075  0.21 0.06 0.00075  0.225 0.06 0.00075  0.24 0.06 0.00075  0.255 0.06 0.00075  0.27 0.06 0.00075  0.285 0.06 0.00075  0.3 0.06 0.00075  0 0.075 0.00075  0.015 0.075 0.00075  0.03 0.075 0.00075  0.045 0.075 0.00075  0.06 0.075 0.00075  0.075 0.075 0.00075  0.09 0.075 0.00075  0.105 0.075 0.00075  0.12 0.075 0.00075  0.135 0.075 0.00075  0.15 0.075 0.00075  0.165 0.075 0.00075  0.18 0.075 0.00075  0.195 0.075 0.00075  0.21 0.075 0.00075  0.225 0.075 0.00075  0.24 0.075 0.00075  0.255 0.075 0.00075  0.27 0.075 0.00075  0.285 0.075 0.00075  0.3 0.075 0.00075  0 0.09 0.00075  0.015 0.09 0.00075  0.03 0.09 0.00075  0.045 0.09 0.00075  0.06 0.09 0.00075  0.075 0.09 0.00075  0.09 0.09 0.00075  0.105 0.09 0.00075  0.12 0.09 0.00075  0.135 0.09 0.00075  0.15 0.09 0.00075  0.165 0.09 0.00075  0.18 0.09 0.00075  0.195 0.09 0.00075  0.21 0.09 0.00075  0.225 0.09 0.00075  0.24 0.09 0.00075  0.255 0.09 0.00075  0.27 0.09 0.00075  0.285 0.09 0.00075  0.3 0.09 0.00075  0 0.105 0.00075  0.015 0.105 0.00075  0.03 0.105 0.00075  0.045 0.105 0.00075  0.06 0.105 0.00075  0.075 0.105 0.00075  0.09 0.105 0.00075  0.105 0.105 0.00075  0.12 0.105 0.00075  0.135 0.105 0.00075  0.15 0.105 0.00075  0.165 0.105 0.00075  0.18 0.105 0.00075  0.195 0.105 0.00075  0.21 0.105 0.00075  0.225 0.105 0.00075  0.24 0.105 0.00075  0.255 0.105 0.00075  0.27 0.105 0.00075  0.285 0.105 0.00075  0.3 0.105 0.00075  0 0.12 0.00075  0.015 0.12 0.00075  0.03 0.12 0.00075  0.045 0.12 0.00075  0.06 0.12 0.00075  0.075 0.12 0.00075  0.09 0.12 0.00075  0.105 0.12 0.00075  0.12 0.12 0.00075  0.135 0.12 0.00075  0.15 0.12 0.00075  0.165 0.12 0.00075  0.18 0.12 0.00075  0.195 0.12 0.00075  0.21 0.12 0.00075  0.225 0.12 0.00075  0.24 0.12 0.00075  0.255 0.12 0.00075  0.27 0.12 0.00075  0.285 0.12 0.00075  0.3 0.12 0.00075  0 0.135 0.00075  0.015 0.135 0.00075  0.03 0.135 0.00075  0.045 0.135 0.00075  0.06 0.135 0.00075  0.075 0.135 0.00075  0.09 0.1
[...]
<PointData  Vectors="f_205"> 
<DataArray  type="Float64"  Name="f_205"  NumberOfComponents="3" format="ascii">-2.4183502433939118e+01 -4.8454980067767579e+01 -1.8561024502031933e+00  -1.9995508547697991e+01 -4.6997066536972234e+01 -1.8849873785056745e+00  -1.5830644757275627e+01 -4.5478148312588729e+01 -1.8847481207992709e+00  -1.1748040390593419e+01 -4.3862531693803035e+01 -1.8646713239456463e+00  -7.7947006495083624e+00 -4.2149328547775575e+01 -1.8328149290737781e+00  -3.9983967432100243e+00 -4.0350567496501199e+01 -1.7946522539106970e+00  -3.7099631352673706e-01 -3.8476711861580490e+01 -1.7528589721963734e+00  3.0837692504831109e+00 -3.6529872491076674e+01 -1.7075552352031726e+00  6.3618450707240717e+00 -3.4502998851864319e+01 -1.6566851186230598e+00  9.4517632913844203e+00 -3.2383858931977180e+01 -1.5968017425468068e+00  1.2331306885374779e+01 -3.0162578810567645e+01 -1.5245678127567532e+00  1.4970032305354611e+01 -2.7839682874562325e+01 -1.4384563758088134e+00  1.7336826261648532e+01 -2.5430325978212725e+01 -1.3394679529740157e+00  1.9408101480341006e+01 -2.2962493574968569e+01 -1.2303274018146535e+00  2.1172268030808279e+01 -2.0471493654668631e+01 -1.1140587225640137e+00  2.2630109707880109e+01 -1.7995242174693850e+01 -9.9337861363626911e-01  2.3794631456990654e+01 -1.5572517921200706e+01 -8.7159200139974480e-01  2.4694396432572173e+01 -1.3241699197944179e+01 -7.5453570251435487e-01  2.5380810212876320e+01 -1.1033904568309636e+01 -6.5226647772193180e-01  2.5933861874511376e+01 -8.9548614758291745e+00 -5.7868080645719377e-01  2.6455541091143072e+01 -6.9612130390340097e+00 -5.4775127326194473e-01  -2.5658514383362796e+01 -4.4283002099637940e+01 -1.8302725731119227e+00  -2.1494898628280961e+01 -4.2879351516051642e+01 -1.8663031891488826e+00  -1.7377464635252696e+01 -4.1462803444936732e+01 -1.8702020360151281e+00  -1.3358328539870817e+01 -3.9982890079059217e+01 -1.8506810038460488e+00  -9.4742900895018369e+00 -3.8424824768246680e+01 -1.8171066666290661e+00  -5.7476760831956399e+00 -3.6790320957871515e+01 -1.7761631995696334e+00  -2.1900308389921430e+00 -3.5084463656963990e+01 -1.7313205601693857e+00  1.1924905157822243e+00 -3.3308864167850032e+01 -1.6831130352133805e+00  4.3936459519725117e+00 -3.1460037827703271e+01 -1.6296507699747891e+00  7.4025494273854209e+00 -2.9531656661286462e+01 -1.5674517517482476e+00  1.0201480789991749e+01 -2.7519259768237362e+01 -1.4929235540362835e+00  1.2767559469344011e+01 -2.5425323147874199e+01 -1.4041454614163664e+00  1.5077932136370427e+01 -2.3262240102447702e+01 -1.3018236951206714e+00  1.7115547312943708e+01 -2.1051770348065237e+01 -1.1886915695233464e+00  1.8872390328018078e+01 -1.8821919610997661e+01 -1.0680641287064987e+00  2.0349757378149771e+01 -1.6603495356001769e+01 -9.4305712472311587e-01  2.1557990297779849e+01 -1.4427483033458657e+01 -8.1735800531863201e-01  2.2518581952870740e+01 -1.2321722330565926e+01 -6.9717281588580726e-01  2.3269477399025156e+01 -1.0303198640564434e+01 -5.9291694155563934e-01  2.3871280841142934e+01 -8.3625246999316722e+00 -5.1848857277820481e-01  2.4412519584844706e+01 -6.4400602278448664e+00 -4.8282720580352378e-01  -2.7087444488299603e+01 -4.0077263682531822e+01 -1.8035672472609838e+00  -2.2941567779225231e+01 -3.8756375573060147e+01 -1.8433985226297360e+00  -1.8844266852353641e+01 -3.7446460155858809e+01 -1.8509335557810676e+00  -1.4856121947899929e+01 -3.6100472822902340e+01 -1.8317028933165580e+00  -1.1012944264157126e+01 -3.4695885817932620e+01 -1.7959896016146415e+00  -7.3342581057231042e+00 -3.3226054208216866e+01 -1.7514985446014135e+00  -3.8296169711030745e+00 -3.1690726071779622e+01 -1.7023830178462569e+00  -5.0427071801233181e-01 -3.0090282193890800e+01 -1.6495929667648743e+00  2.6362529612420009e+00 -2.8423728882700370e+01 -1.5915796674820339e+00  5.5827620446885469e+00 -2.6689477883457478e+01 -1.5252092560685793e+00  8.3208556009391295e+00 -2.4887688551832422e+01 -1.4471341241506310e+00  1.0832229244904696e+01 -2.3022811103648639e+01 -1.3554111057746396e+00  1.3098680286578112e+01 -2.1105251015782290e+01 -1.2504679444568199e+00  1.5106578183898833e+01 -1.9151357368494601e+01 -1.1347128033251996e+00  1.6849272990653208e+01 -1.7182004090188403e+01 -1.0113152392479074e+00  1.8327095062411267e+01 -1.5220395466504673e+01 -8.8352169932706970e-01  1.9547136960042003e+01 -1.3289323518900876e+01 -7.5542600840599572e-01  2.0525661292857922e+01 -1.1407033653074993e+01 -6.3389725971864663e-01  2.1294356861186607e+01 -9.5800110253542243e+00 -5.3021117509431226e-01  2.1909147499437758e+01 -7.7915068958554006e+00 -4.5900611972724803e-01  2.2461494112904937e+01 -5.9862941128271165e+00 -4.2731251094713624e-01  -2.8411999250739598e+01 -3.5832852723774721e+01 -1.7793390664090329e+00  -2.4281269600301695e+01 -3.4625402571846649e+01 -1.8212494702195523e+00  -2.0195401496051069e+01 -3.3436975248651812e+01 -1.8307852778422395e+00  -1.6222695361380957e+01 -3.2229043920484898e+01 -1.8116373464106570e+00  -1.2402549206464000e+01 -3.0978471651052789e+01 -1.7739362740301530e+00  -8.7547027753492550e+00 -2.9674320580284682e+01 -1.7258372541711360e+00  -5.2876885106967801e+00 -2.8312661671964364e+01 -1.6719575623324188e+00  -2.0055541811950066e+00 -2.6892583208392310e+01 -1.6136922855076898e+00  1.0874829161156248e+00 -2.5414333570234245e+01 -1.5500458961338874e+00  3.9841245109750352e+00 -2.3879168097467875e+01 -1.4785791922518396e+00  6.6728243573352781e+00 -2.2290096251261783e+01 -1.3965811260158134e+00  9.1388058049581851e+00 -2.0652697424656854e+01 -1.3023578549325534e+00  1.1367156063407920e+01 -1.8975839045210741e+01 -1.1960612943830053e+00  1.3346281934269655e+01 -1.7271704417309426e+01 -1.0795026827857244e+00  1.5069805302642157e+01 -1.5555263432670403e+01 -9.5532801428407788e-01  1.6536673260374371e+01 -1.3842963429064890e+01 -8.2660988682982572e-01  1.7751447663417711e+01 -1.2150349827911272e+01 -6.9765662078557822e-01  1.8727488574091712e+01 -1.0488194346820553e+01 -5.7582551809076898e-01  1.9494329262599717e+01 -8.8566946294103808e+00 -4.7298808157257660e-01  2.0108007721537049e+01 -7.2379991230858973e+00 -4.0421857068328099e-01  2.0663822644406746e+01 -5.5889312464115903e+00 -3.7540736024656968e-01  -2.9598015532203984e+01 -3.1555812329879071e+01 -1.7591806462933683e+00  -2.5480259950879965e+01 -3.0486099099966143e+01 -1.8019886366058295e+00  -2.1402680472926427e+01 -2.9435377180370693e+01 -1.8121961162918576e+00  -1.7438862548257347e+01 -2.8373920333603259e+01 -1.7924636573320365e+00  -1.3632127784301741e+01 -2.7281283837487294e+01 -1.7526681069649097e+00  -1.0004014495459256e+01 -2.6145663618671350e+01 -1.7010441908364926e+00  -6.5632873641680476e+00 -2.4961421716535483e+01 -1.6424555826265483e+00  -3.3134471213696770e+00 -2.3726756003440972e+01 -1.5786759258483303e+00  -2.5769430113135094e-01 -2.2442292471431312e+01 -1.5092868545327676e+00  2.5983063102041841e+00 -2.1110505964597959e+01 -1.4326136535106275e+00  5.2454533607862830e+00 -1.9735602269209100e+01 -1.3466845041461422e+00  7.6719258645237582e+00 -1.8323304361635962e+01 -1.2501687376593671e+00  9.8655169593476248e+00 -1.6881138172077065e+01 -1.1430301167809827e+00  1.1816195130453664e+01 -1.5418214216324495e+01 -1.0264739922721913e+00  1.3517616091080830e+01 -1.3945049903306028e+01 -9.0251330790652839e-01  1.4967548384375673e+01 -1.2472792013802030e+01 -7.7388773196971228e-01  1.6168889608780887e+01 -1.1011358627610011e+01 -6.4495040520518454e-01  1.7133674575016677e+01 -9.5663362709998516e+00 -5.2335443439450235e-01  1.7891214474685050e+01 -8.1348288045572126e+00 -4.2131336163530647e-01  1.8498929166136758e+01 -6.7011476226607103e+00 -3.5404434431256959e-01  1.9054617465289493e+01 -5.2346497599130606e+00 -3.2669928939263393e-01  -3.0624890991242424e+01 -2.7254468707408634e+01 -1.7439040061016642e+00  -2.6518031357416877e+01 -2.6340183453691150e+01 -1.7867839055788004e+00  -2.2447295907696745e+01 -2.5441499249821749e+01 -1.7967295406410790e+00  -1.8489673631018334e+01 -2.4536171121270907e+01 -1.7757956196824827e+00  -1.4691666093515030e+01 -2.3607480031956076e+01 -1.7337022601569583e+00  -1.1076910505416425e+01 -2.2644657341628545e+01 -1.6786749727673966e+00  -7.6551066542459107e+00 -2.1641842997351421e+01 -1.6157031221551144e+00  -4.4298328883209539e+00 -2.0596854870589620e+01 -1.5468496377466419e+00  -1.4037260347484479e+00 -1.9510256885330516e+01 -1.4721930742166700e+00  1.4187844797450158e+00 -1.8384683758421577e+01 -1.3907291847242487e+00  4.0305997719133551e+00 -1.7224407963769934e+01 -1.3011422964170218e+00  6.4223227051380922e+00 -1.6034499842192975e+01 -1.2024317874910426e+00  8.5840430389120943e+00 -1.4821282512477628e+01 -1.0944635618503289e+00  1.0507130595772297e+01 -1.3591592516653144e+01 -9.7796654798386295e-01  1.2185416338142328e+01 -1.2352735965144170e+01 -8.5440242086471374e-01  1.3615946859615237e+01 -1.1112025202061320e+01 -7.2616424048794037e-01  1.4800698884150023e+01 -9.8754190257815608e+00 -5.9754690067204308e-01  1.5751275212167613e+01 -8.6452781314634350e+00 -4.7633334278277706e-01  1.6497463905690811e+01 -7.4176742534325228e+00 -3.7487441902297275e-01  1.7097995741041274e+01 -6.1802557878276652e+00 -3.0834041440042625e-01  1.7651747749328862e+01 -4.9127496382585809e+00 -2.8137665362882081e-01  -3.1480095280975618e+01 -2.2936131987125925e+01 -1.7340093824221872e+00  -2.7382088915786635e+01 -2.2189844420654406e+01 -1.7764057318389863e+00  -2.3317202434437846e+01 -2.1454874318029603e+01 -1.7854831856876432e+00  -1.9364641611969876e+01 -2.0714797152480472e+01 -1.7629137511879818e+00  -1.5573261463432303e+01 -1.9956606323105273e+01 -1.7183621479139235e+00  -1.1968538092420044e+01 -1.9171381185351930e+01 -1.6600609261212156e+00  -8.5612627122874585e+00 -1.8353887031812569e+01 -1.5930858635998313e+00  -5.3553959786529548e+00 -1.7501949404777580e+01 -1.5197162756052331e+00  -2.3533297388338434e+00 -1.6615895452658741e+01 -1.4404227220972641e+00  4.4135666699441922e-01 -1.5697958050694799e+01 -1.3547392043098971e+00  3.0231326386032116e+00 -1.4751916999450080e+01 -1.2618857952587741e+00  5.3844562343044009e+00 -1.3781618850617871e+01 -1.1610614620960877e+00  7.5173427753368722e+00 -1.2792453298872594e+01 -1.0520932226708228e+00  9.4144768514194705e+00 -1.1789497765932026e+01 -9.3537998764110719e-01  1.1070080691136582e+01 -1.0777733103964321e+01 -8.1198225272967228e-01  1.2480934847599119e+01 -9.7618207994114226e+00 -6.8401197171573014e-01  1.3648643344348276e+01 -8.7451501634082582e+00 -5.5566393159434124e-01  1.4584822951046601e+01 -7.7283304488967435e+00 -4.3473279275718230e-01  1.5319846120130109e+01 -6.7076030173114898e+00 -3.3356233963457471e-01  1.5913296608328606e+01 -5.6740337560134018e+00 -2.6717257824351159e-01  1.6464135032185563e+01 -4.6151122572672563e+00 -2.3985224661612217e-01  -3.2155638042283456e+01 -1.8606027433391816e+01 -1.7298224104287059e+00  -2.8064519461302929e+01 -1.8036801026035612e+01 -1.7713932347781789e+00  -2.4004584279495045e+01 -1.7474651792444458e+01 -1.7792588541152334e+00  -2.0056574361553210e+01 -1.6907608135206146e+01 -1.7548222267475977e+00  -1.6271007769879738e+01 -1.6326014908909858e+01 -1.7077609898536530e+00  -1.2674759685893891e+01 -1.5723030895122234e+01 -1.6463415581389318e+00  -9.2795556418064375e+00 -1.5094430681814588e+01 -1.5757077003491626e+00  -6.0897727687706196e+00 -1.4438271235222624e+01 -1.4982937552153313e+00  -3.1076412689591120e+00 -1.3754532440817661e+01 -1.4148538726992408e+00  -3.3620646763964274e-01 -1.3044741576997982e+01 -1.3253488329902487e+00  2.2201531893012265e+00 -1.2312080306060848e+01 -1.2295561775137533e+00  4.5550942468533222e+00 -1.1558701012990340e+01 -1.1266804894154276e+00  6.6622914299593745e+00 -1.0789681396744824e+01 -1.0165421700659445e+00  8.5357050955475540e+00 -1.0008569204655625e+01 -8.9928887854700912e-01  1.0170108783153019e+01 -9.2185571598863714e+00 -7.7571351621137918e-01  1.1562344038199239e+01 -8.4224976245057306e+00 -6.4773236743155305e-01  1.2713981591684259e+01 -7.6222336956090730e+00 -5.1943746226177367e-01  1.3636826536199925e+01 -6.8176358999883657e+00 -3.9856708130601171e-01  1.4361707935500148e+01 -6.0057544591348515e+00 -2.9737300189256777e-01  1.4948600101583351e+01 -5.1807211512212641e+00 -2.3068138006813513e-01  1.5495981889682209e+01 -4.3355978699539914e+00 -2.0252589624367207e-01  -3.2645541462867421e+01 -1.4267482135288418e+01 -1.7314118703150057e+00  -2.8559666709078112e+01 -1.3882078899853129e+01 -1.7719793503469801e+00  -2.4503970012603446e+01 -1.3499531924364485e+01 -1.7784865080031322e+00  -2.0560365691929952e+01 -1.3111571263060203e+01 -1.7521438083798277e+00  -1.6780501358941340e+01 -1.2711566838884156e+01 -1.7026877322384910e+00  -1.3192197225048956e+01 -1.2294780534342497e+01 -1.6384345487076661e+00  -9.8078310417409504e+00 -1.1858174939670185e+01 -1.5645629117942561e+00  -6.6320806086129220e+00 -1.1400187897140688e+01 -1.4835713958943493e+00  -3.6669901899993880e+00 -1.0920434094773778e+01 -1.3963786007804500e+00  -9.1499102685081146e-01 -1.0419281886489003e+01 -1.3030598547444729e+00  1.6203157261640944e+00 -9.8991156284894526e+00 -1.2043382818664330e+00  3.9324923418607494e+00 -9.3601171858263896e+00 -1.0992776627960921e+00  6.0169825437851703e+00 -8.8083488293488212e+00 -9.8783346244186543e-01  7.8691828177330070e+00 -8.2456390202770784e+00 -8.6978394840071205e-01  9.4844835852042468e+00 -7.6736390173630440e+00 -7.4571802254155217e-01  1.0859936105968828e+01 -7.0939523449438191e+00 -6.1742981524862284e-01  1.1997219839596079e+01 -6.5075760111643932e+00 -4.8892429574578977e-01  1.2908333135002426e+01 -5.9142941792220975e+00 -3.6785359625014125e-01  1.3624362022130661e+01 -5.3122792513203736e+00 -2.6633930630006070e-01  1.4205319395010779e+01 -4.6983038454095443e+00 -1.9900790329233806e-01  1.4748949754066865e+01 -4.0694407908625712e+00 -1.6971039328335627e-01  -3.2944318682086191e+01 -9.9232172304659017e+00 -1.7384726017119481e+00  -2.8862743431222771e+01 -9.7266567282416609e+00 -1.7779341939560700e+00  -2.4811018701562059e+01 -9.5283788841284363e+00 -1.7830006069897100e+00  -2.0872061007778274e+01 -9.3236322343602733e+00 -1.7547838903420372e+00  -1.7098282233835658e+01 -9.1086157368621539e+00 -1.7031281431780294e+00  -1.3518067185514662e+01 -8.8806420404350384e+00 -1.6364435435272231e+00  -1.0144133030819573e+01 -8.6379498175410312e+00 -1.5599624035164910e+00  -6.9812301645785766e+00 -8.3795783237483779e+00 -1.4761905228861434e+00  -4.0312638876763316e+00 -8.1052163297399726e+00 -1.3859924847733323e+00  -1.2966325425621401e+00 -7.8150942452616050e+00 -1.2894745375458749e+00  1.2231310794474386e+00 -7.5069560155227615e+00 -1.1873455856664723e+00  3.5159607937052102e+00 -7.1807129722783376e+00 -1.0789170019748935e+00  5.5801369709568638e+00 -6.8445916331729535e+00 -9.6584607090605368e-01  7.4135712974950074e+00 -6.4981622203034828e+00 -8.4677891356646640e-01  9.0121772744817079e+00 -6.1417012532171391e+00 -7.2196571954158828e-01  1.0373129099655364e+01 -5.7759708582249587e+00 -5.9310660438259488e-01  1.1498172265850807e+01 -5.4015940480518259e+00 -4.6413351802882569e-01  1.2399390620338588e+01 -5.0186778751517034e+00 -3.4260397954534522e-01  1.3107916710705636e+01 -4.6266715433528454e+00 -2.4050105901427671e-01  1.3683563567238677e+01 -4.2246599199394179e+00 -1.7226727328577662e-01  1.4223286125484160e+01 -3.8127594129415066e+00 -1.4162761294790643e-01  -3.3047039833634521e+01 -5.5769816732089108e+00 -1.7505193118392741e+00  -2.8969603742507886e+01 -5.5725540716453752e+00 -1.7887260378432022e+00  -2.4922086780413171e+01 -5.5614436035753521e+00 -1.7921730425265361e+00  -2.0988312512362413e+01 -5.5424400213229976e+00 -1.7619686911828858e+00  -1.7221258148128449e+01 -5.5144481759663488e+00 -1.7080860065031274e+00  -1.3649649901895188e+01 -5.4766628018515426e+00 -1.6390678729239496e+00  -1.0286373028150880e+01 -5.4283975568571110e+00 -1.5602733607123609e+00  -7.1361306814547598e+00 -5.3690517352341161e+00 -1.4743512982443694e+00  -4.2004562302928088e+00 -5.2981543693023854e+00 -1.3823230316765429e+00  -1.4801318264825620e+00 -5.2154209912982159e+00 -1.2844431480910077e+00  1.0257924195348567e+00 -5.1211608733805889e+00 -1.1819339089315704e+00  3.3046659731643198e+00 -5.0145168407748875e+00 -1.0661258729992920e+00  5.3501405876261154e+00 -4.8952254648989602e+00 -9.5053962500467370e-01  7.1672291459914570e+00 -4.7643223797390570e+00 -8.3016556983446610e-01  8.7518565424150321e+00 -4.6219192537852507e+00 -7.0438087163497098e-01  1.0100931207890127e+01 -4.4684415459742679e+00 -5.7472573891042356e-01  1.1216099899329823e+01 -4.3044870777636834e+00 -4.4505311542569970e-01  1.2109379602427087e+01 -4.1307477217898585e+00 -3.2282466753873956e-01  1.2811758141849674e+01 -3.9480497225816076e+00 -2.1989232801402875e-01  1.3382693777508115e+01 -3.7576271300772786e+00 -1.5054143262550732e-01  1.3918405704991390e+01 -3.5621765780904950e+00 -1.1842181443150218e-01  -3.2950828237144158e+01 -1.2338150557616927e+00 -1.7673737449471942e+00  -2.8877644832384554e+01 -1.4229463255261952e+00 -1.8040952359012346e+00  -2.4834749379226860e+01 -1.6005181380482858e+00 -1.8056580008586101e+00  -2.0906683009424555e+01 -1.7688281225598059e+00 -1.7732189421846123e+00  -1.7146776616158071e+01 -1.9294949473457281e+00 -1.7168464923778257e+00  -1.3583837837324745e+01 -2.0835464829050263e+00 -1.6451668348470792e+00  -1.0230672460801314e+01 -2.2312979246377882e+00 -1.5635839832727532e+00  -7.0918234561994868e+00 -2.3724489173522421e+00 -1.4747492620189471e+00  -4.1687105420056740e+00 -2.5062972450653715e+00 -1.3796271926743762e+00  -1.4623160675085622e+00 -2.6320474882457972e+00 -1.2784150763960385e+00  1.0252164229906828e+00 -2.7488714995950971e+00 -1.1711496778468327e+00  3.2890508138470969e+00 -2.8600009763785854e+00 -1.0578196483748317e+00  5.3216107398262613e+00 -2.9590980731390655e+00 -9.4131199115605824e-01  7.1273972091852427e+00 -3.0434533591781872e+00 -8.1975822459958292e-01  8.7018366479131402e+00 -3.1141082261624189e+00 -6.9288008101426668e-01  1.0042075155562655e+01 -3.1715285861357105e+00 -5.6224861750289146e-01  1.1149898717520996e+01 -3.2164604424219161e+00 -4.3167024429924999e-01  1.2037242259651881e+01 -3.2503081049707179e+00 -3.0852110569249402e-01  1.2734810163104298e+01 -3.2753570330528956e+00 -2.0453718059113302e-01  1.3301593111643696e+01 -3.2950073176263306e+00 -1.3387792898248976e-01  1.3833164642059991e+01 -3.3145036058941111e+00 -1.0017111416762368e-01  -3.2655886976077461e+01 3.1014597130829746e+00 -1.7893489907510012e+00  -2.8586683899535945e+01 2.7191805177012460e+00 -1.8243625495228926e+00  -2.4548690069771659e+01 2.3528527480432353e+00 -1.8238550900038351e+00  -2.0626901865363244e+01 1.9966795776006110e+00 -1.7890611292987897e+00  -1.6874770454987559e+01 1.6462432087073207e+00 -1.7301432019123875e+00  -1.3321004505219198e+01 1.2987036199446669e+00 -1.6558178989092527e+00  -9.9782517922543477e+00 9.5283687408655371e-01 -1.5715680990190701e+00  -6.8509474359399807e+00 6.0873698888098404e-01 -1.4801314513738950e+00  -3.9404920174456612e+00 2.6738467131409682e-01 -1.3826039725970873e+00  -1.2479224855757156e+00 -6.9775377324448329e-02 -1.2793766207865396e+00  1.2249509112712240e+00 -4.0118736820778583e-01 -1.1707402862671563e+00  3.4750730187209236e+00 -7.2616156525861808e-01 -1.0570939541493232e+00  5.4990550694704492e+00 -1.0380823026896040e+00 -9.3926071649414167e-01  7.2958163304199664e+00 -1.3359617092799878e+00 -8.1591237593359556e-01  8.8621515005632610e+00 -1.6185823239869830e+00 -6.8756284527241485e-01  1.0195740634800734e+01 -1.8856503661223010e+00 -5.5569761216247071e-01  1.1298351710239723e+01 -2.1378293138834623e+00 -4.2399140646620515e-01  1.2181587144513623e+01 -2.3771750539539824e+00 -2.9970177269735343e-01  1.2875599042522163e+01 -2.6074880670538567e+00 -1.9444773680255345e-01  1.3438719121221666e+01 -2.8345252441048587e+00 -1.2228898487227785e-01  1.3965911995396102e+01 -3.0664432551374015e+00 -8.6892391468856092e-02  -3.2164401488732949e+01 7.4254389467821635e+00 -1.8168954942453541e+00  -2.8098245643547259e+01 6.8520984569063632e+00 -1.8500