<?xml version="1.0"?>
<VTKFile type="UnstructuredGrid"  version="0.1"  >
<UnstructuredGrid>
<Piece  NumberOfPoints="9261" NumberOfCells="48000">
<Points>
<DataArray  type="Float64"  NumberOfComponents="3"  format="ascii">0 0 0  0.015 0 0  0.03 0 0  0.045 0 0  0.06 0 0  0.075 0 0  0.09 0 0  0.105 0 0  0.12 0 0  0.135 0 0  0.15 0 0  0.165 0 0  0.18 0 0  0.195 0 0  0.21 0 0  0.225 0 0  0.24 0 0  0.255 0 0  0.27 0 0  0.285 0 0  0.3 0 0  0 0.015 0  0.015 0.015 0  0.03 0.015 0  0.045 0.015 0  0.06 0.015 0  0.075 0.015 0  0.09 0.015 0  0.105 0.015 0  0.12 0.015 0  0.135 0.015 0  0.15 0.015 0  0.165 0.015 0  0.18 0.015 0  0.195 0.015 0  0.21 0.015 0  0.225 0.015 0  0.24 0.015 0  0.255 0.015 0  0.27 0.015 0  0.285 0.015 0  0.3 0.015 0  0 0.03 0  0.015 0.03 0  0.03 0.03 0  0.045 0.03 0  0.06 0.03 0  0.075 0.03 0  0.09 0.03 0  0.105 0.03 0  0.12 0.03 0  0.135 0.03 0  0.15 0.03 0  0.165 0.03 0  0.18 0.03 0  0.195 0.03 0  0.21 0.03 0  0.225 0.03 0  0.24 0.03 0  0.255 0.03 0  0.27 0.03 0  0.285 0.03 0  0.3 0.03 0  0 0.045 0  0.015 0.045 0  0.03 0.045 0  0.045 0.045 0  0.06 0.045 0  0.075 0.045 0  0.09 0.045 0  0.105 0.045 0  0.12 0.045 0  0.135 0.045 0  0.15 0.045 0  0.165 0.045 0  0.18 0.045 0  0.195 0.045 0  0.21 0.045 0  0.225 0.045 0  0.24 0.045 0  0.255 0.045 0  0.27 0.045 0  0.285 0.045 0  0.3 0.045 0  0 0.06 0  0.015 0.06 0  0.03 0.06 0  0.045 0.06 0  0.06 0.06 0  0.075 0.06 0  0.09 0.06 0  0.105 0.06 0  0.12 0.06 0  0.135 0.06 0  0.15 0.06 0  0.165 0.06 0  0.18 0.06 0  0.195 0.06 0  0.21 0.06 0  0.225 0.06 0  0.24 0.06 0  0.255 0.06 0  0.27 0.06 0  0.285 0.06 0  0.3 0.06 0  0 0.075 0  0.015 0.075 0  0.03 0.075 0  0.045 0.075 0  0.06 0.075 0  0.075 0.075 0  0.09 0.075 0  0.105 0.075 0  0.12 0.075 0  0.135 0.075 0  0.15 0.075 0  0.165 0.075 0  0.18 0.075 0  0.195 0.075 0  0.21 0.075 0  0.225 0.075 0  0.24 0.075 0  0.255 0.075 0  0.27 0.075 0  0.285 0.075 0  0.3 0.075 0  0 0.09 0  0.015 0.09 0  0.03 0.09 0  0.045 0.09 0  0.06 0.09 0  0.075 0.09 0  0.09 0.09 0  0.105 0.09 0  0.12 0.09 0  0.135 0.09 0  0.15 0.09 0  0.165 0.09 0  0.18 0.09 0  0.195 0.09 0  0.21 0.09 0  0.225 0.09 0  0.24 0.09 0  0.255 0.09 0  0.27 0.09 0  0.285 0.09 0  0.3 0.09 0  0 0.105 0  0.015 0.105 0  0.03 0.105 0  0.045 0.105 0  0.06 0.105 0  0.075 0.105 0  0.09 0.105 0  0.105 0.105 0  0.12 0.105 0  0.135 0.105 0  0.15 0.105 0  0.165 0.105 0  0.18 0.105 0  0.195 0.105 0  0.21 0.105 0  0.225 0.105 0  0.24 0.105 0  0.255 0.105 0  0.27 0.105 0  0.285 0.105 0  0.3 0.105 0  0 0.12 0  0.015 0.12 0  0.03 0.12 0  0.045 0.12 0  0.06 0.12 0  0.075 0.12 0  0.09 0.12 0  0.105 0.12 0  0.12 0.12 0  0.135 0.12 0  0.15 0.12 0  0.165 0.12 0  0.18 0.12 0  0.195 0.12 0  0.21 0.12 0  0.225 0.12 0  0.24 0.12 0  0.255 0.12 0  0.27 0.12 0  0.285 0.12 0  0.3 0.12 0  0 0.135 0  0.015 0.135 0  0.03 0.135 0  0.045 0.135 0  0.06 0.135 0  0.075 0.135 0  0.09 0.135 0  0.105 0.135 0  0.12 0.135 0  0.135 0.135 0  0.15 0.135 0  0.165 0.135 0  0.18 0.135 0  0.195 0.135 0  0.21 0.135 0  0.225 0.135 0  0.24 0.135 0  0.255 0.135 0  0.27 0.135 0  0.285 0.135 0  0.3 0.135 0  0 0.15 0  0.015 0.15 0  0.03 0.15 0  0.045 0.15 0  0.06 0.15 0  0.075 0.15 0  0.09 0.15 0  0.105 0.15 0  0.12 0.15 0  0.135 0.15 0  0.15 0.15 0  0.165 0.15 0  0.18 0.15 0  0.195 0.15 0  0.21 0.15 0  0.225 0.15 0  0.24 0.15 0  0.255 0.15 0  0.27 0.15 0  0.285 0.15 0  0.3 0.15 0  0 0.165 0  0.015 0.165 0  0.03 0.165 0  0.045 0.165 0  0.06 0.165 0  0.075 0.165 0  0.09 0.165 0  0.105 0.165 0  0.12 0.165 0  0.135 0.165 0  0.15 0.165 0  0.165 0.165 0  0.18 0.165 0  0.195 0.165 0  0.21 0.165 0  0.225 0.165 0  0.24 0.165 0  0.255 0.165 0  0.27 0.165 0  0.285 0.165 0  0.3 0.165 0  0 0.18 0  0.015 0.18 0  0.03 0.18 0  0.045 0.18 0  0.06 0.18 0  0.075 0.18 0  0.09 0.18 0  0.105 0.18 0  0.12 0.18 0  0.135 0.18 0  0.15 0.18 0  0.165 0.18 0  0.18 0.18 0  0.195 0.18 0  0.21 0.18 0  0.225 0.18 0  0.24 0.18 0  0.255 0.18 0  0.27 0.18 0  0.285 0.18 0  0.3 0.18 0  0 0.195 0  0.015 0.195 0  0.03 0.195 0  0.045 0.195 0  0.06 0.195 0  0.075 0.195 0  0.09 0.195 0  0.105 0.195 0  0.12 0.195 0  0.135 0.195 0  0.15 0.195 0  0.165 0.195 0  0.18 0.195 0  0.195 0.195 0  0.21 0.195 0  0.225 0.195 0  0.24 0.195 0  0.255 0.195 0  0.27 0.195 0  0.285 0.195 0  0.3 0.195 0  0 0.21 0  0.015 0.21 0  0.03 0.21 0  0.045 0.21 0  0.06 0.21 0  0.075 0.21 0  0.09 0.21 0  0.105 0.21 0  0.12 0.21 0  0.135 0.21 0  0.15 0.21 0  0.165 0.21 0  0.18 0.21 0  0.195 0.21 0  0.21 0.21 0  0.225 0.21 0  0.24 0.21 0  0.255 0.21 0  0.27 0.21 0  0.285 0.21 0  0.3 0.21 0  0 0.225 0  0.015 0.225 0  0.03 0.225 0  0.045 0.225 0  0.06 0.225 0  0.075 0.225 0  0.09 0.225 0  0.105 0.225 0  0.12 0.225 0  0.135 0.225 0  0.15 0.225 0  0.165 0.225 0  0.18 0.225 0  0.195 0.225 0  0.21 0.225 0  0.225 0.225 0  0.24 0.225 0  0.255 0.225 0  0.27 0.225 0  0.285 0.225 0  0.3 0.225 0  0 0.24 0  0.015 0.24 0  0.03 0.24 0  0.045 0.24 0  0.06 0.24 0  0.075 0.24 0  0.09 0.24 0  0.105 0.24 0  0.12 0.24 0  0.135 0.24 0  0.15 0.24 0  0.165 0.24 0  0.18 0.24 0  0.195 0.24 0  0.21 0.24 0  0.225 0.24 0  0.24 0.24 0  0.255 0.24 0  0.27 0.24 0  0.285 0.24 0  0.3 0.24 0  0 0.255 0  0.015 0.255 0  0.03 0.255 0  0.045 0.255 0  0.06 0.255 0  0.075 0.255 0  0.09 0.255 0  0.105 0.255 0  0.12 0.255 0  0.135 0.255 0  0.15 0.255 0  0.165 0.255 0  0.18 0.255 0  0.195 0.255 0  0.21 0.255 0  0.225 0.255 0  0.24 0.255 0  0.255 0.255 0  0.27 0.255 0  0.285 0.255 0  0.3 0.255 0  0 0.27 0  0.015 0.27 0  0.03 0.27 0  0.045 0.27 0  0.06 0.27 0  0.075 0.27 0  0.09 0.27 0  0.105 0.27 0  0.12 0.27 0  0.135 0.27 0  0.15 0.27 0  0.165 0.27 0  0.18 0.27 0  0.195 0.27 0  0.21 0.27 0  0.225 0.27 0  0.24 0.27 0  0.255 0.27 0  0.27 0.27 0  0.285 0.27 0  0.3 0.27 0  0 0.285 0  0.015 0.285 0  0.03 0.285 0  0.045 0.285 0  0.06 0.285 0  0.075 0.285 0  0.09 0.285 0  0.105 0.285 0  0.12 0.285 0  0.135 0.285 0  0.15 0.285 0  0.165 0.285 0  0.18 0.285 0  0.195 0.285 0  0.21 0.285 0  0.225 0.285 0  0.24 0.285 0  0.255 0.285 0  0.27 0.285 0  0.285 0.285 0  0.3 0.285 0  0 0.3 0  0.015 0.3 0  0.03 0.3 0  0.045 0.3 0  0.06 0.3 0  0.075 0.3 0  0.09 0.3 0  0.105 0.3 0  0.12 0.3 0  0.135 0.3 0  0.15 0.3 0  0.165 0.3 0  0.18 0.3 0  0.195 0.3 0  0.21 0.3 0  0.225 0.3 0  0.24 0.3 0  0.255 0.3 0  0.27 0.3 0  0.285 0.3 0  0.3 0.3 0  0 0 0.00075  0.015 0 0.00075  0.03 0 0.00075  0.045 0 0.00075  0.06 0 0.00075  0.075 0 0.00075  0.09 0 0.00075  0.105 0 0.00075  0.12 0 0.00075  0.135 0 0.00075  0.15 0 0.00075  0.165 0 0.00075  0.18 0 0.00075  0.195 0 0.00075  0.21 0 0.00075  0.225 0 0.00075  0.24 0 0.00075  0.255 0 0.00075  0.27 0 0.00075  0.285 0 0.00075  0.3 0 0.00075  0 0.015 0.00075  0.015 0.015 0.00075  0.03 0.015 0.00075  0.045 0.015 0.00075  0.06 0.015 0.00075  0.075 0.015 0.00075  0.09 0.015 0.00075  0.105 0.015 0.00075  0.12 0.015 0.00075  0.135 0.015 0.00075  0.15 0.015 0.00075  0.165 0.015 0.00075  0.18 0.015 0.00075  0.195 0.015 0.00075  0.21 0.015 0.00075  0.225 0.015 0.00075  0.24 0.015 0.00075  0.255 0.015 0.00075  0.27 0.015 0.00075  0.285 0.015 0.00075  0.3 0.015 0.00075  0 0.03 0.00075  0.015 0.03 0.00075  0.03 0.03 0.00075  0.045 0.03 0.00075  0.06 0.03 0.00075  0.075 0.03 0.00075  0.09 0.03 0.00075  0.105 0.03 0.00075  0.12 0.03 0.00075  0.135 0.03 0.00075  0.15 0.03 0.00075  0.165 0.03 0.00075  0.18 0.03 0.00075  0.195 0.03 0.00075  0.21 0.03 0.00075  0.225 0.03 0.00075  0.24 0.03 0.00075  0.255 0.03 0.00075  0.27 0.03 0.00075  0.285 0.03 0.00075  0.3 0.03 0.00075  0 0.045 0.00075  0.015 0.045 0.00075  0.03 0.045 0.00075  0.045 0.045 0.00075  0.06 0.045 0.00075  0.075 0.045 0.00075  0.09 0.045 0.00075  0.105 0.045 0.00075  0.12 0.045 0.00075  0.135 0.045 0.00075  0.15 0.045 0.00075  0.165 0.045 0.00075  0.18 0.045 0.00075  0.195 0.045 0.00075  0.21 0.045 0.00075  0.225 0.045 0.00075  0.24 0.045 0.00075  0.255 0.045 0.00075  0.27 0.045 0.00075  0.285 0.045 0.00075  0.3 0.045 0.00075  0 0.06 0.00075  0.015 0.06 0.00075  0.03 0.06 0.00075  0.045 0.06 0.00075  0.06 0.06 0.00075  0.075 0.06 0.00075  0.09 0.06 0.00075  0.105 0.06 0.00075  0.12 0.06 0.00075  0.135 0.06 0.00075  0.15 0.06 0.00075  0.165 0.06 0.00075  0.18 0.06 0.00075  0.195 0.06 0.00075  0.21 0.06 0.00075  0.225 0.06 0.00075  0.24 0.06 0.00075  0.255 0.06 0.00075  0.27 0.06 0.00075  0.285 0.06 0.00075  0.3 0.06 0.00075  0 0.075 0.00075  0.015 0.075 0.00075  0.03 0.075 0.00075  0.045 0.075 0.00075  0.06 0.075 0.00075  0.075 0.075 0.00075  0.09 0.075 0.00075  0.105 0.075 0.00075  0.12 0.075 0.00075  0.135 0.075 0.00075  0.15 0.075 0.00075  0.165 0.075 0.00075  0.18 0.075 0.00075  0.195 0.075 0.00075  0.21 0.075 0.00075  0.225 0.075 0.00075  0.24 0.075 0.00075  0.255 0.075 0.00075  0.27 0.075 0.00075  0.285 0.075 0.00075  0.3 0.075 0.00075  0 0.09 0.00075  0.015 0.09 0.00075  0.03 0.09 0.00075  0.045 0.09 0.00075  0.06 0.09 0.00075  0.075 0.09 0.00075  0.09 0.09 0.00075  0.105 0.09 0.00075  0.12 0.09 0.00075  0.135 0.09 0.00075  0.15 0.09 0.00075  0.165 0.09 0.00075  0.18 0.09 0.00075  0.195 0.09 0.00075  0.21 0.09 0.00075  0.225 0.09 0.00075  0.24 0.09 0.00075  0.255 0.09 0.00075  0.27 0.09 0.00075  0.285 0.09 0.00075  0.3 0.09 0.00075  0 0.105 0.00075  0.015 0.105 0.00075  0.03 0.105 0.00075  0.045 0.105 0.00075  0.06 0.105 0.00075  0.075 0.105 0.00075  0.09 0.105 0.00075  0.105 0.105 0.00075  0.12 0.105 0.00075  0.135 0.105 0.00075  0.15 0.105 0.00075  0.165 0.105 0.00075  0.18 0.105 0.00075  0.195 0.105 0.00075  0.21 0.105 0.00075  0.225 0.105 0.00075  0.24 0.105 0.00075  0.255 0.105 0.00075  0.27 0.105 0.00075  0.285 0.105 0.00075  0.3 0.105 0.00075  0 0.12 0.00075  0.015 0.12 0.00075  0.03 0.12 0.00075  0.045 0.12 0.00075  0.06 0.12 0.00075  0.075 0.12 0.00075  0.09 0.12 0.00075  0.105 0.12 0.00075  0.12 0.12 0.00075  0.135 0.12 0.00075  0.15 0.12 0.00075  0.165 0.12 0.00075  0.18 0.12 0.00075  0.195 0.12 0.00075  0.21 0.12 0.00075  0.225 0.12 0.00075  0.24 0.12 0.00075  0.255 0.12 0.00075  0.27 0.12 0.00075  0.285 0.12 0.00075  0.3 0.12 0.00075  0 0.135 0.00075  0.015 0.135 0.00075  0.03 0.135 0.00075  0.045 0.135 0.00075  0.06 0.135 0.00075  0.075 0.135 0.00075  0.09 0.1
[...]
<PointData  Scalars="f_1662"> 
<DataArray  type="Float64"  Name="f_1662"  format="ascii">4.7141008693511480e-10  -6.6697849810593077e-10  -4.0878207548929465e-10  -1.0878776928774659e-10  3.0826804894261117e-12  2.6417452724494253e-11  2.7678373171513302e-11  2.6358974897461977e-11  2.5656849968231362e-11  2.6878085007823931e-11  3.2960882038754646e-11  2.4934413693263312e-11  -1.0365187788357415e-10  -6.3554263677638625e-11  2.2137768848561800e-09  -5.5432439075393786e-09  5.4746204452936566e-09  -1.2856507767825565e-09  -4.4078617925411129e-11  -1.4760435847513040e-09  7.6016549918883193e-10  -1.0261080556052752e-09  -3.9582390277080539e-09  -1.6047549517645330e-09  -2.1043041545563125e-10  1.6580932454356250e-10  2.1137287520708154e-10  2.0219220794013853e-10  1.9481067282933319e-10  1.9287369360023656e-10  1.9531780075836715e-10  1.9448749197734998e-10  1.3179535760965719e-10  -3.9769628176278994e-11  8.0893825630319347e-10  4.2430649765947761e-09  -1.7212273204684102e-08  2.4007980435797736e-08  -9.3927231836892833e-09  -1.2472599757639086e-09  -4.7562825224968903e-09  4.6788891974909183e-09  -4.1622276212768379e-08  -3.7967936201249396e-08  -9.9648040903591279e-09  9.8586418094994637e-10  3.0421893509130482e-09  3.0521983745157496e-09  2.9077282811701421e-09  2.8441849598693602e-09  2.8268573409606103e-09  2.8181169068300026e-09  2.7555840815612981e-09  2.5428587677526840e-09  2.8860446056432055e-09  7.8758512700746513e-09  9.0276989772741985e-09  -8.5214836723156112e-08  1.8198884297146837e-07  -1.0884200510616755e-07  -7.9457674675940919e-09  -1.9381998373611357e-08  4.9988450977349828e-08  -6.2894442341264673e-07  -3.1175466190551585e-07  -3.4436704990228556e-08  3.9367221484947252e-08  4.6339422602391513e-08  4.3896338956958699e-08  4.2405237099379061e-08  4.1916657236987838e-08  4.1780511544783026e-08  4.1688227946276474e-08  4.1516405221269318e-08  4.1858807489404367e-08  4.6717589686127134e-08  5.9037133608383896e-08  -8.8177506269985563e-10  -3.0439027762093326e-07  1.2536552607050843e-06  -1.1124289125088332e-06  7.1909498032572499e-08  3.9093868004586151e-08  4.8703677456622050e-07  -7.1931342921669816e-06  -2.0286857424121865e-06  3.0408250207232891e-07  6.8937611013823765e-07  6.6837964101888712e-07  6.3520391854172468e-07  6.2293419296629047e-07  6.1968611369386630e-07  6.1894205248126092e-07  6.1882331776808153e-07  6.1963425713961711e-07  6.2462572879213702e-07  6.3696175551133068e-07  6.0010720167102771e-07  2.1287936522692580e-07  -3.9771839563810129e-08  7.5606806195057612e-06  -9.8851704313744705e-06  2.7528965728690272e-06  2.0687430423729425e-06  4.3167729413503310e-06  -6.8101622031329159e-05  -6.9562969908318305e-06  9.3135087757109961e-06  1.0257328161766951e-05  9.5841287544363069e-06  9.2750541364401243e-06  9.1895216059388998e-06  9.1707754134676291e-06  9.1674906286173610e-06  9.1680467989276746e-06  9.1713238537651882e-06  9.1724967168592042e-06  9.1125466709360448e-06  8.7249703619963588e-06  7.9219911337936754e-06  1.2550861513660598e-05  3.9312306585203289e-05  -7.4128977233537356e-05  4.7929217560272174e-05  3.0135760190372841e-05  3.5009871029085803e-05  -5.1985701436456659e-04  7.4012223684037786e-05  1.5643708732826478e-04  1.4630916848930523e-04  1.3852831099892007e-04  1.3621241784883990e-04  1.3570238888337057e-04  1.3560793906118674e-04  1.3559187326739249e-04  1.3558567227707507e-04  1.3556429960969712e-04  1.3546978857669289e-04  1.3516506389619836e-04  1.3491000169413436e-04  1.3954029768424741e-04  1.7017412814089881e-04  1.9676059012531394e-04  -4.1588530557359817e-04  6.4222890629637606e-04  3.2686813724197366e-04  2.5867264772858197e-04  -2.4861793329561841e-03  2.1848880177731669e-03  2.2725262615831202e-03  2.0793491195402964e-03  2.0143102942510637e-03  2.0000236662056263e-03  1.9974812014042068e-03  1.9970881160892777e-03  1.9970343170595695e-03  1.9970328718195568e-03  1.9970719915404236e-03  1.9973376617958560e-03  1.9988954957409228e-03  2.0065118245030473e-03  2.0333465638384843e-03  2.0600454940316410e-03  1.6391730759339109e-03  -6.6984741674356717e-04  7.3523339662475862e-03  2.9670514632250075e-03  1.7130402547031590e-03  1.1439801808519563e-02  3.5877961164625181e-02  3.1457905613336563e-02  2.9512724855994352e-02  2.9091717158782209e-02  2.9021590324959910e-02  2.9011635989710766e-02  2.9010387139915019e-02  2.9010247062545996e-02  2.9010230435064361e-02  2.9010199607204863e-02  2.9009922365684684e-02  2.9007604761139037e-02  2.8990282399925522e-02  2.8876937098798433e-02  2.8263430857021481e-02  2.5950890016136433e-02  2.4763036852670207e-02  7.4025236359619342e-02  2.2904302467811673e-02  9.7988189442026093e-03  5.2561545635185281e-01  4.8307465753885948e-01  4.1765231855797125e-01  4.0417549694900212e-01  4.0219445336872789e-01  4.0195132697700287e-01  4.0192546040290350e-01  4.0192309835594903e-01  4.0192292628453824e-01  4.0192291880797970e-01  4.0192291969100957e-01  4.0192297666152682e-01  4.0192393285493638e-01  4.0193553573495444e-01  4.0205371060677791e-01  4.0310131429992668e-01  4.1111199726861059e-01  4.6041275636953205e-01  6.4055439108317291e-01  1.4331924152703129e-01  4.4328975569839293e-02  7.9161081982294608e+00  5.1065769113506772e+00  4.6256837212551885e+00  4.5718857085116937e+00  4.5669617171272048e+00  4.5665976413152860e+00  4.5665806534772857e+00  4.5665813232563712e+00  4.5665816376858581e+00  4.5665816916471371e+00  4.5665817055465663e+00  4.5665817694828803e+00  4.5665822290791365e+00  4.5665845313785702e+00  4.5665830791665716e+00  4.5663457196270718e+00  4.5622648408172513e+00  4.5119769838259769e+00  4.0156233868154985e+00  5.8611250078791288e-01  1.1875623125415759e-01  1.3231277339549006e+00  3.4753888454145032e-01  4.1096230552848589e-01  4.4570268043582223e-01  4.5234365358609235e-01  4.5329811339830034e-01  4.5341459845808851e-01  4.5342704782607790e-01  4.5342820260471400e-01  4.5342829032643200e-01  4.5342829607109680e-01  4.5342829796201556e-01  4.5342819326208278e-01  4.5342621224626029e-01  4.5340107395514906e-01  4.5313755079175527e-01  4.5074180431694733e-01  4.3187887949807696e-01  3.0995423448850296e-01  -2.1316279615833858e-01  -1.1233558783988476e-01  1.5696151285262155e-01  -2.1796892459656377e-02  3.0109951021062929e-02  3.5245257676484669e-02  3.4361800970336871e-02  3.3969872042955124e-02  3.3884433474963033e-02  3.3870054676900685e-02  3.3867985779003636e-02  3.3867721600016748e-02  3.3867690437130789e-02  3.3867674543003906e-02  3.3867528818466969e-02  3.3866100961617934e-02  3.3853604694616561e-02  3.3755451777233436e-02  3.3070884024879052e-02  2.8971769010602846e-02  9.6265044906789256e-03  -4.4574309695181391e-02  4.7241241796887245e-03  1.5882966531465273e-02  -9.6750433684050317e-03  4.0449391540944915e-03  2.9073277644893272e-03  2.3847063531731625e-03  2.3393019311325662e-03  2.3484537630441859e-03  2.3529081941687105e-03  2.3539969736609159e-03  2.3542025078253279e-03  2.3542348722527437e-03  2.3542316200847561e-03  2.3541630334169769e-03  2.3536178619059625e-03  2.3496990832324333e-03  2.3242899711148511e-03  2.1792204532501591e-03  1.4850831604656170e-03  -9.9415804275797791e-04  -5.3077130018740204e-03  4.7537009656946653e-03  1.4021573713434983e-03  -1.7606390399254592e-03  8.4905509170244602e-04  1.9364323202845883e-04  1.3450682102659377e-04  1.5411250314830303e-04  1.5989678975271337e-04  1.6046137068856004e-04  1.6037758803188606e-04  1.6032701556051366e-04  1.6031286219922610e-04  1.6030687047708861e-04  1.6028334653420882e-04  1.6012745829017275e-04  1.5916456913223642e-04  1.5383113166817544e-04  1.2821416988647094e-04  2.8225517958104499e-05  -2.4189024710449242e-04  -4.5337885279109549e-04  1.0519164659951394e-03  1.0291932681930112e-04  -2.4679744316359788e-04  1.6851519493634939e-04  -9.0883651667819767e-06  3.9356848847786563e-06  1.0947454659416214e-05  1.1178903704714972e-05  1.0924011007608219e-05  1.0854111827397273e-05  1.0846034453640967e-05  1.0846513947044801e-05  1.0846119877360182e-05  1.0840090169070486e-05  1.0803083253693664e-05  1.0602054231793172e-05  9.6344547679772767e-06  5.6739506808579521e-06  -6.9823651979885299e-06  -3.1685405611112832e-05  -2.2553794898639423e-05  1.6387312938385618e-04  5.0383212541815250e-06  -2.9572763596343492e-05  2.8885259333992817e-05  -7.5754847384601211e-06  2.5806392290438175e-07  1.0991321209551705e-06  8.0252058536608644e-07  7.2889345367907551e-07  7.2834760386326852e-07  7.3153056668575833e-07  7.3237643555294717e-07  7.3224865119760372e-07  7.3080571363849082e-07  7.2309257961377350e-07  6.8593713399639534e-07  5.2918425024932996e-07  -1.9587516248451682e-08  -1.4358542205193407e-06  -3.1445299506855183e-06  1.2142441342282031e-06  2.0943752179890350e-05  -1.1451419412596226e-07  -3.1054188142717131e-06  4.3496450364035317e-06  -2.0029756336355281e-06  2.6268603433722085e-07  1.4017960140363381e-07  4.5288607775828340e-08  4.4455804324206779e-08  4.8654830861392035e-08  4.9488473913856185e-08  4.9477027287946335e-08  4.9381101573791295e-08  4.9070578068156871e-08  4.7625228095573015e-08  4.1403859010645923e-08  1.8321942118938207e-08  -5.0444387406794454e-08  -1.8795454323158506e-07  -2.3012599274390801e-07  5.3558566910608135e-07  2.2874681218264001e-06  -7.4189545063577018e-08  -2.8213050526019823e-07  5.8726432207856319e-07  -3.9760356381683524e-07  1.0250955331115926e-07  1.1356575558092859e-08  -1.5894099070023885e-09  2.5035750516327646e-09  3.4545688031609363e-09  3.4001538982461501e-09  3.3424989487672966e-09  3.3205967088602166e-09  3.2639919761867033e-09  3.0167650292395705e-09  2.0599523213389164e-09  -1.0565522293457688e-09  -8.8290401277227336e-09  -1.9634981245942558e-08  -6.8563716478060421e-09  9.4625583048409256e-08  2.1162967661483828e-07  -1.2991583547327160e-08  -2.1102577259901675e-08  7.3090688118539941e-08  -6.8394568742484629e-08  2.7288671089911874e-08  -1.9104306643043626e-09  -1.0271725319584897e-09  2.9666430000560075e-10  2.9701389634401104e-10  2.3344873085806230e-10  2.2337352762147550e-10  2.2242518392183281e-10  2.1348966565781780e-10  1.7469230618072833e-10  3.8697455609834451e-11  -3.5024961343828920e-10  -1.1399509511291696e-09  -1.6677541867007403e-09  1.5076615437859380e-09  1.2837019427070593e-08  1.5376210235290184e-08  -3.7089346547468042e-09  -1.8401045050617554e-09  1.6128613605029851e-08  -2.0463051496676879e-08  1.1365122449067645e-08  -2.3370454234782781e-09  -2.4198256721777077e-10  1.6165382597686110e-10  5.1809926845682409e-11  2.6212792010715807e-11  2.8554079652011780e-11  2.9413655613704188e-11  2.6373385621001461e-11  1.4593672519954329e-11  -2.1740905995977279e-11  -1.1005559420262621e-10  -2.4203528938714336e-10  -1.7602539501062823e-10  8.1158371989531888e-10  2.8586264919882067e-09  9.7508688285402887e-10  4.6983842195368418e-10  -6.7027209932411232e-10  -4.0968673412142396e-10  -1.0873197068004458e-10  3.3026550413512503e-12  2.6627275717424108e-11  2.7871871129742792e-11  2.6546519079021532e-11  2.5844416217449512e-11  2.7067242501360271e-11  3.3127060370439081e-11  2.4996077568650099e-11  -1.0340077871441723e-10  -6.1469413969247008e-11  2.2104116040896729e-09  -5.5465941019210174e-09  5.4886866552268440e-09  -1.2939764270808489e-09  -4.6166335346668336e-11  -1.4774962863249088e-09  7.6918407246172648e-10  -1.0417294607818829e-09  -3.9673235471395720e-09  -1.6053125433037168e-09  -2.0904695486007485e-10  1.6722046888097631e-10  2.1265026589360141e-10  2.0341337986284835e-10  1.9601766325687599e-10  1.9407758085321386e-10  1.9650434083543623e-10  1.9559704901641501e-10  1.3292964325903539e-10  -3.7125011087773312e-11  8.1331629526198989e-10  4.2195029285079653e-09  -1.7176531540109905e-08  2.4012968720836491e-08  -9.4188735343888685e-09  -1.2523379438242702e-09  -4.7456874775872679e-09  4.6995723105047248e-09  -4.1754716819482447e-08  -3.8022748902010317e-08  -9.9524482687776039e-09  1.0072831568504656e-09  3.0618735640147608e-09  3.0706015274360301e-09  2.9257286846371132e-09  2.8620923425710772e-09  2.8447295045650222e-09  2.8359224028738333e-09  2.7734152320260099e-09  2.5620714573605083e-09  2.9101164325280872e-09  7.8865936765726677e-09  8.9339647684446953e-09  -8.4915273556587389e-08  1.8191416022419898e-07  -1.0905044284694299e-07  -7.9043493357297618e-09  -1.9240938993618461e-08  5.0167913199510370e-08  -6.2986461025168308e-07  -3.1189481836099520e-07  -3.4134017251009362e-08  3.9674615239826926e-08  4.6618482286868164e-08  4.4164606150656793e-08  4.2670931937310645e-08  4.2181886250328991e-08  4.2045670661287879e-08  4.1953575432534006e-08  4.1783251042079619e-08  4.2130516912384047e-08  4.6983803762733786e-08  5.9186338832276574e-08  -9.1296034465024209e-10  -3.0224558431592308e-07  1.2522761630180785e-06  -1.1136420704627256e-06  7.3148004135714334e-08  4.0618480706225116e-08  4.8847485914417859e-07  -7.1972105162567805e-06  -2.0259008467411393e-06  3.0888895805661191e-07  6.9368181556560648e-07  6.7239914306671345e-07  6.3914879992087446e-07  6.2686565589218289e-07  6.2361596804298497e-07  6.2287216872967224e-07  6.2275467046234657e-07  6.2356733811364170e-07  6.2854548489632267e-07  6.4076440801042383e-07  6.0357229372647613e-07  2.1737675477675887e-07  -2.6348253596618843e-08  7.5468020195224839e-06  -9.8865903492483441e-06  2.7712706395285900e-06  2.0830345235528777e-06  4.3271740332087936e-06  -6.8086266348797901e-05  -6.8872765034167014e-06  9.3817250805868437e-06  1.0318233062707419e-05  9.6427981270865480e-06  9.3333084054971295e-06  9.2477247553434436e-06  9.2289760677903831e-06  9.2256912110230469e-06  9.2262422078635282e-06  9.2294916067788423e-06  9.2305596684001130e-06  9.1704283513056573e-06  8.7838843168120286e-06  7.9903919383530950e-06  1.2635356628004151e-05  3.9226653937067352e-05  -7.4036968895801759e-05  4.8145271127218530e-05  3.0254510002843229e-05  3.5076079092501978e-05  -5.1913005924330354e-04  7.5114975319836083e-05  1.5738283956517990e-04  1.4718506016866463e-04  1.3939057762696300e-04  1.3707305484848009e-04  1.3656296388806296e-04  1.3646854262958465e-04  1.3645248771483259e-04  1.3644629632722532e-04  1.3642498241602077e-04  1.3633086420281171e-04  1.3602831910076966e-04  1.3578220501825027e-04  1.4042863658316731e-04  1.7096185506250487e-04  1.9680119500737367e-04  -4.1409368948421151e-04  6.4444852637045259e-04  3.2773940741186961e-04  2.5902089216349119e-04  -2.4729643279890385e-03  2.2003863361773229e-03  2.2857406393389200e-03  2.0920668566650853e-03  2.0269714503613409e-03  2.0126832662372344e-03  2.0101418288396328e-03  2.0097490658328538e-03  2.0096953324200274e-03  2.0096938974633197e-03  2.0097329916959018e-03  2.0099983026431261e-03  2.0115526553366766e-03  2.0191417388457206e-03  2.0458061396897236e-03  2.0717568901067094e-03  1.6499036862532566e-03  -6.4643122781340848e-04  7.3732176462888111e-03  2.9725416368685219e-03  1.7142706334466172e-03  1.1644711381332733e-02  3.6085736129937686e-02  3.1643474638530227e-02  2.9695932294111802e-02  2.9274885518905971e-02  2.9204798596707434e-02  2.9194855023638524e-02  2.9193608116744939e-02  2.9193468328133295e-02  2.9193451732281959e-02  2.9193420868462227e-02  2.9193143436257309e-02  2.9190825715020643e-02  2.9173514659098451e-02  2.9060343537625762e-02  2.8448583113587226e-02  2.6148736195668328e-02  2.5014538617398267e-02  7.4217338893837151e-02  2.2932195450398839e-02  9.7980330093080676e-03  5.2895160638618366e-01  4.8573487865103426e-01  4.2015526643624368e-01  4.0667598769996000e-01  4.0469660034047261e-01  4.0445384908321408e-01  4.0442803998494919e-01  4.0442568525690498e-01  4.0442551399760190e-01  4.0442550660200727e-01  4.0442550752440093e-01  4.0442556484241038e-01  4.0442652415037794e-01  4.0443815082500945e-01  4.0455647059481836e-01  4.0560459088319767e-01  4.1361300829096742e-01  4.6285471586223292e-01  6.4255752297463642e-01  1.4342377510734663e-01  4.4274604434107752e-02  7.9797579783750585e+00  5.1339487078182771e+00  4.6522912838669743e+00  4.5985523888105213e+00  4.5936409235062161e+00  4.5932783651021554e+00  4.5932615272042794e+00  4.5932622093217379e+00  4.5932625244985603e+00  4.5932625784702381e+00  4.5932625923746384e+00  4.5932626563501238e+00  4.5932631156197283e+00  4.5932654085023374e+00  4.5932638185407502e+00  4.5930248436776093e+00  4.5889270821011179e+00  4.5384685472921111e+00  4.0401993331155470e+00  5.8649893268991027e-01  1.1836332384659867e-01  1.3239926349122237e+00  3.4488380114174122e-01  4.0970383123885895e-01  4.4460695657086724e-01  4.5125897785260338e-01  4.5221368961792624e-01  4.5233009831396176e-01  4.5234252956708865e-01  4.5234368160558341e-01  4.5234376898923456e-01  4.5234377469367809e-01  4.5234377651094321e-01  4.5234367098415773e-01  4.5234168170238825e-01  4.5231647051867718e-01  4.5205237880138749e-01  4.4965278459761876e-01  4.3076818452711746e-01  3.0874356425627525e-01  -2.1487538303299231e-01  -1.1247079693101245e-01  1.5663002646718840e-01  -2.2248722949906569e-02  2.9985845811131687e-02  3.5085531226653283e-02  3.4190167848377161e-02  3.3796429478195236e-02  3.3710788289581017e-02  3.3696392462054338e-02  3.3694322805644251e-02  3.3694058705755356e-02  3.3694027566372922e-02  3.3694011632671980e-02  3.3693865532417600e-02  3.3692434828305765e-02  3.3679919574338781e-02  3.3581660249207716e-02  3.2896656186707417e-02  2.8797014211301548e-02  9.4618435642592480e-03  -4.4652254416041225e-02  4.8416845987636790e-03  1.5827724226648545e-02  -9.7164550049226844e-03  4.0491407393481779e-03  2.8937468421822302e-03  2.3701430030633823e-03  2.3251398967932212e-03  2.3344179786224648e-03  2.3388955798421419e-03  2.3399876508409523e-03  2.3401935677905337e-03  2.3402259656271694e-03  2.3402226998563377e-03  2.3401540055610478e-03  2.3396081837288901e-03  2.3356861191221544e-03  2.3102652495358362e-03  2.1651914368334222e-03  1.4714168547068636e-03  -1.0044675083707355e-03  -5.3029448349119048e-03  4.7743249568141565e-03  1.3956750180713563e-03  -1.7632882317044913e-03  8.5130793241002000e-04  1.9197940224991938e-04  1.3335765806421867e-04  1.5311826302794236e-04  1.5890922532897563e-04  1.5946962021811808e-04  1.5938439171977680e-04  1.5933351628082907e-04  1.5931931241883329e-04  1.5931330975871551e-04  1.5928976224774147e-04  1.5913376640682686e-04  1.5817051922778906e-04  1.5283702494804644e-04  1.2723111872569749e-04  2.7346301726896071e-05  -2.4220221571204017e-04  -4.5201472299205613e-04  1.0541609154781967e-03  1.0227074906761490e-04  -2.4684580310118396e-04  1.6887153845514643e-04  -9.3701384143506091e-06  3.8670642599125178e-06  1.0888385440671914e-05  1.1112504282443067e-05  1.0855972264259403e-05  1.0785985744707012e-05  1.0777951083389665e-05  1.0778447317387079e-05  1.0778056381934360e-05  1.0772023749743069e-05  1.0735005353027598e-05  1.0533975296380278e-05  9.5667234719574042e-06  5.6094991283976951e-06  -7.0274891225414372e-06  -3.1654803656412345e-05  -2.2376535284097175e-05  1.6404940025785078e-04  4.9820906813671825e-06  -2.9552119683573684e-05  2.8924035153907752e-05  -7.6224021639169373e-06  2.6129151506998644e-07  1.0963756406807629e-06  7.9775970376101003e-07  7.2416799012940569e-07  7.2371311569231654e-07  7.2691569765366089e-07  7.2776296503188948e-07  7.2763464128409857e-07  7.2619111695011632e-07  7.1847791076770048e-07  6.8133385821118537e-07  5.2468877861605117e-07  -2.3421323645276024e-08  -1.4367491807178685e-06  -3.1368097337183812e-06  1.2311048194087840e-06  2.0950796320459407e-05  -1.1848309742545967e-07  -3.1007571436004656e-06  4.3524880028254909e-06  -2.0098248684446523e-06  2.6496558212937320e-07  1.3989003130226262e-07  4.4853946738466222e-08  4.4127190278757719e-08  4.8345574507922908e-08  4.9178084683693171e-08  4.9165508467735498e-08  4.9069319135761104e-08  4.8758771400674864e-08  4.7313811991300921e-08  4.1096108966692604e-08  1.8037276347994976e-08  -5.0618853608160240e-08  -1.8774086863626975e-07  -2.2907564578467522e-07  5.3670531996124306e-07  2.2866815875738461e-06  -7.4357303530474298e-08  -2.8143971818014098e-07  5.8729274264019280e-07  -3.9846276152387960e