<?xml version="1.0"?>
<VTKFile type="UnstructuredGrid"  version="0.1"  >
<UnstructuredGrid>
<Piece  NumberOfPoints="9261" NumberOfCells="48000">
<Points>
<DataArray  type="Float64"  NumberOfComponents="3"  format="ascii">0 0 0  0.015 0 0  0.03 0 0  0.045 0 0  0.06 0 0  0.075 0 0  0.09 0 0  0.105 0 0  0.12 0 0  0.135 0 0  0.15 0 0  0.165 0 0  0.18 0 0  0.195 0 0  0.21 0 0  0.225 0 0  0.24 0 0  0.255 0 0  0.27 0 0  0.285 0 0  0.3 0 0  0 0.015 0  0.015 0.015 0  0.03 0.015 0  0.045 0.015 0  0.06 0.015 0  0.075 0.015 0  0.09 0.015 0  0.105 0.015 0  0.12 0.015 0  0.135 0.015 0  0.15 0.015 0  0.165 0.015 0  0.18 0.015 0  0.195 0.015 0  0.21 0.015 0  0.225 0.015 0  0.24 0.015 0  0.255 0.015 0  0.27 0.015 0  0.285 0.015 0  0.3 0.015 0  0 0.03 0  0.015 0.03 0  0.03 0.03 0  0.045 0.03 0  0.06 0.03 0  0.075 0.03 0  0.09 0.03 0  0.105 0.03 0  0.12 0.03 0  0.135 0.03 0  0.15 0.03 0  0.165 0.03 0  0.18 0.03 0  0.195 0.03 0  0.21 0.03 0  0.225 0.03 0  0.24 0.03 0  0.255 0.03 0  0.27 0.03 0  0.285 0.03 0  0.3 0.03 0  0 0.045 0  0.015 0.045 0  0.03 0.045 0  0.045 0.045 0  0.06 0.045 0  0.075 0.045 0  0.09 0.045 0  0.105 0.045 0  0.12 0.045 0  0.135 0.045 0  0.15 0.045 0  0.165 0.045 0  0.18 0.045 0  0.195 0.045 0  0.21 0.045 0  0.225 0.045 0  0.24 0.045 0  0.255 0.045 0  0.27 0.045 0  0.285 0.045 0  0.3 0.045 0  0 0.06 0  0.015 0.06 0  0.03 0.06 0  0.045 0.06 0  0.06 0.06 0  0.075 0.06 0  0.09 0.06 0  0.105 0.06 0  0.12 0.06 0  0.135 0.06 0  0.15 0.06 0  0.165 0.06 0  0.18 0.06 0  0.195 0.06 0  0.21 0.06 0  0.225 0.06 0  0.24 0.06 0  0.255 0.06 0  0.27 0.06 0  0.285 0.06 0  0.3 0.06 0  0 0.075 0  0.015 0.075 0  0.03 0.075 0  0.045 0.075 0  0.06 0.075 0  0.075 0.075 0  0.09 0.075 0  0.105 0.075 0  0.12 0.075 0  0.135 0.075 0  0.15 0.075 0  0.165 0.075 0  0.18 0.075 0  0.195 0.075 0  0.21 0.075 0  0.225 0.075 0  0.24 0.075 0  0.255 0.075 0  0.27 0.075 0  0.285 0.075 0  0.3 0.075 0  0 0.09 0  0.015 0.09 0  0.03 0.09 0  0.045 0.09 0  0.06 0.09 0  0.075 0.09 0  0.09 0.09 0  0.105 0.09 0  0.12 0.09 0  0.135 0.09 0  0.15 0.09 0  0.165 0.09 0  0.18 0.09 0  0.195 0.09 0  0.21 0.09 0  0.225 0.09 0  0.24 0.09 0  0.255 0.09 0  0.27 0.09 0  0.285 0.09 0  0.3 0.09 0  0 0.105 0  0.015 0.105 0  0.03 0.105 0  0.045 0.105 0  0.06 0.105 0  0.075 0.105 0  0.09 0.105 0  0.105 0.105 0  0.12 0.105 0  0.135 0.105 0  0.15 0.105 0  0.165 0.105 0  0.18 0.105 0  0.195 0.105 0  0.21 0.105 0  0.225 0.105 0  0.24 0.105 0  0.255 0.105 0  0.27 0.105 0  0.285 0.105 0  0.3 0.105 0  0 0.12 0  0.015 0.12 0  0.03 0.12 0  0.045 0.12 0  0.06 0.12 0  0.075 0.12 0  0.09 0.12 0  0.105 0.12 0  0.12 0.12 0  0.135 0.12 0  0.15 0.12 0  0.165 0.12 0  0.18 0.12 0  0.195 0.12 0  0.21 0.12 0  0.225 0.12 0  0.24 0.12 0  0.255 0.12 0  0.27 0.12 0  0.285 0.12 0  0.3 0.12 0  0 0.135 0  0.015 0.135 0  0.03 0.135 0  0.045 0.135 0  0.06 0.135 0  0.075 0.135 0  0.09 0.135 0  0.105 0.135 0  0.12 0.135 0  0.135 0.135 0  0.15 0.135 0  0.165 0.135 0  0.18 0.135 0  0.195 0.135 0  0.21 0.135 0  0.225 0.135 0  0.24 0.135 0  0.255 0.135 0  0.27 0.135 0  0.285 0.135 0  0.3 0.135 0  0 0.15 0  0.015 0.15 0  0.03 0.15 0  0.045 0.15 0  0.06 0.15 0  0.075 0.15 0  0.09 0.15 0  0.105 0.15 0  0.12 0.15 0  0.135 0.15 0  0.15 0.15 0  0.165 0.15 0  0.18 0.15 0  0.195 0.15 0  0.21 0.15 0  0.225 0.15 0  0.24 0.15 0  0.255 0.15 0  0.27 0.15 0  0.285 0.15 0  0.3 0.15 0  0 0.165 0  0.015 0.165 0  0.03 0.165 0  0.045 0.165 0  0.06 0.165 0  0.075 0.165 0  0.09 0.165 0  0.105 0.165 0  0.12 0.165 0  0.135 0.165 0  0.15 0.165 0  0.165 0.165 0  0.18 0.165 0  0.195 0.165 0  0.21 0.165 0  0.225 0.165 0  0.24 0.165 0  0.255 0.165 0  0.27 0.165 0  0.285 0.165 0  0.3 0.165 0  0 0.18 0  0.015 0.18 0  0.03 0.18 0  0.045 0.18 0  0.06 0.18 0  0.075 0.18 0  0.09 0.18 0  0.105 0.18 0  0.12 0.18 0  0.135 0.18 0  0.15 0.18 0  0.165 0.18 0  0.18 0.18 0  0.195 0.18 0  0.21 0.18 0  0.225 0.18 0  0.24 0.18 0  0.255 0.18 0  0.27 0.18 0  0.285 0.18 0  0.3 0.18 0  0 0.195 0  0.015 0.195 0  0.03 0.195 0  0.045 0.195 0  0.06 0.195 0  0.075 0.195 0  0.09 0.195 0  0.105 0.195 0  0.12 0.195 0  0.135 0.195 0  0.15 0.195 0  0.165 0.195 0  0.18 0.195 0  0.195 0.195 0  0.21 0.195 0  0.225 0.195 0  0.24 0.195 0  0.255 0.195 0  0.27 0.195 0  0.285 0.195 0  0.3 0.195 0  0 0.21 0  0.015 0.21 0  0.03 0.21 0  0.045 0.21 0  0.06 0.21 0  0.075 0.21 0  0.09 0.21 0  0.105 0.21 0  0.12 0.21 0  0.135 0.21 0  0.15 0.21 0  0.165 0.21 0  0.18 0.21 0  0.195 0.21 0  0.21 0.21 0  0.225 0.21 0  0.24 0.21 0  0.255 0.21 0  0.27 0.21 0  0.285 0.21 0  0.3 0.21 0  0 0.225 0  0.015 0.225 0  0.03 0.225 0  0.045 0.225 0  0.06 0.225 0  0.075 0.225 0  0.09 0.225 0  0.105 0.225 0  0.12 0.225 0  0.135 0.225 0  0.15 0.225 0  0.165 0.225 0  0.18 0.225 0  0.195 0.225 0  0.21 0.225 0  0.225 0.225 0  0.24 0.225 0  0.255 0.225 0  0.27 0.225 0  0.285 0.225 0  0.3 0.225 0  0 0.24 0  0.015 0.24 0  0.03 0.24 0  0.045 0.24 0  0.06 0.24 0  0.075 0.24 0  0.09 0.24 0  0.105 0.24 0  0.12 0.24 0  0.135 0.24 0  0.15 0.24 0  0.165 0.24 0  0.18 0.24 0  0.195 0.24 0  0.21 0.24 0  0.225 0.24 0  0.24 0.24 0  0.255 0.24 0  0.27 0.24 0  0.285 0.24 0  0.3 0.24 0  0 0.255 0  0.015 0.255 0  0.03 0.255 0  0.045 0.255 0  0.06 0.255 0  0.075 0.255 0  0.09 0.255 0  0.105 0.255 0  0.12 0.255 0  0.135 0.255 0  0.15 0.255 0  0.165 0.255 0  0.18 0.255 0  0.195 0.255 0  0.21 0.255 0  0.225 0.255 0  0.24 0.255 0  0.255 0.255 0  0.27 0.255 0  0.285 0.255 0  0.3 0.255 0  0 0.27 0  0.015 0.27 0  0.03 0.27 0  0.045 0.27 0  0.06 0.27 0  0.075 0.27 0  0.09 0.27 0  0.105 0.27 0  0.12 0.27 0  0.135 0.27 0  0.15 0.27 0  0.165 0.27 0  0.18 0.27 0  0.195 0.27 0  0.21 0.27 0  0.225 0.27 0  0.24 0.27 0  0.255 0.27 0  0.27 0.27 0  0.285 0.27 0  0.3 0.27 0  0 0.285 0  0.015 0.285 0  0.03 0.285 0  0.045 0.285 0  0.06 0.285 0  0.075 0.285 0  0.09 0.285 0  0.105 0.285 0  0.12 0.285 0  0.135 0.285 0  0.15 0.285 0  0.165 0.285 0  0.18 0.285 0  0.195 0.285 0  0.21 0.285 0  0.225 0.285 0  0.24 0.285 0  0.255 0.285 0  0.27 0.285 0  0.285 0.285 0  0.3 0.285 0  0 0.3 0  0.015 0.3 0  0.03 0.3 0  0.045 0.3 0  0.06 0.3 0  0.075 0.3 0  0.09 0.3 0  0.105 0.3 0  0.12 0.3 0  0.135 0.3 0  0.15 0.3 0  0.165 0.3 0  0.18 0.3 0  0.195 0.3 0  0.21 0.3 0  0.225 0.3 0  0.24 0.3 0  0.255 0.3 0  0.27 0.3 0  0.285 0.3 0  0.3 0.3 0  0 0 0.00075  0.015 0 0.00075  0.03 0 0.00075  0.045 0 0.00075  0.06 0 0.00075  0.075 0 0.00075  0.09 0 0.00075  0.105 0 0.00075  0.12 0 0.00075  0.135 0 0.00075  0.15 0 0.00075  0.165 0 0.00075  0.18 0 0.00075  0.195 0 0.00075  0.21 0 0.00075  0.225 0 0.00075  0.24 0 0.00075  0.255 0 0.00075  0.27 0 0.00075  0.285 0 0.00075  0.3 0 0.00075  0 0.015 0.00075  0.015 0.015 0.00075  0.03 0.015 0.00075  0.045 0.015 0.00075  0.06 0.015 0.00075  0.075 0.015 0.00075  0.09 0.015 0.00075  0.105 0.015 0.00075  0.12 0.015 0.00075  0.135 0.015 0.00075  0.15 0.015 0.00075  0.165 0.015 0.00075  0.18 0.015 0.00075  0.195 0.015 0.00075  0.21 0.015 0.00075  0.225 0.015 0.00075  0.24 0.015 0.00075  0.255 0.015 0.00075  0.27 0.015 0.00075  0.285 0.015 0.00075  0.3 0.015 0.00075  0 0.03 0.00075  0.015 0.03 0.00075  0.03 0.03 0.00075  0.045 0.03 0.00075  0.06 0.03 0.00075  0.075 0.03 0.00075  0.09 0.03 0.00075  0.105 0.03 0.00075  0.12 0.03 0.00075  0.135 0.03 0.00075  0.15 0.03 0.00075  0.165 0.03 0.00075  0.18 0.03 0.00075  0.195 0.03 0.00075  0.21 0.03 0.00075  0.225 0.03 0.00075  0.24 0.03 0.00075  0.255 0.03 0.00075  0.27 0.03 0.00075  0.285 0.03 0.00075  0.3 0.03 0.00075  0 0.045 0.00075  0.015 0.045 0.00075  0.03 0.045 0.00075  0.045 0.045 0.00075  0.06 0.045 0.00075  0.075 0.045 0.00075  0.09 0.045 0.00075  0.105 0.045 0.00075  0.12 0.045 0.00075  0.135 0.045 0.00075  0.15 0.045 0.00075  0.165 0.045 0.00075  0.18 0.045 0.00075  0.195 0.045 0.00075  0.21 0.045 0.00075  0.225 0.045 0.00075  0.24 0.045 0.00075  0.255 0.045 0.00075  0.27 0.045 0.00075  0.285 0.045 0.00075  0.3 0.045 0.00075  0 0.06 0.00075  0.015 0.06 0.00075  0.03 0.06 0.00075  0.045 0.06 0.00075  0.06 0.06 0.00075  0.075 0.06 0.00075  0.09 0.06 0.00075  0.105 0.06 0.00075  0.12 0.06 0.00075  0.135 0.06 0.00075  0.15 0.06 0.00075  0.165 0.06 0.00075  0.18 0.06 0.00075  0.195 0.06 0.00075  0.21 0.06 0.00075  0.225 0.06 0.00075  0.24 0.06 0.00075  0.255 0.06 0.00075  0.27 0.06 0.00075  0.285 0.06 0.00075  0.3 0.06 0.00075  0 0.075 0.00075  0.015 0.075 0.00075  0.03 0.075 0.00075  0.045 0.075 0.00075  0.06 0.075 0.00075  0.075 0.075 0.00075  0.09 0.075 0.00075  0.105 0.075 0.00075  0.12 0.075 0.00075  0.135 0.075 0.00075  0.15 0.075 0.00075  0.165 0.075 0.00075  0.18 0.075 0.00075  0.195 0.075 0.00075  0.21 0.075 0.00075  0.225 0.075 0.00075  0.24 0.075 0.00075  0.255 0.075 0.00075  0.27 0.075 0.00075  0.285 0.075 0.00075  0.3 0.075 0.00075  0 0.09 0.00075  0.015 0.09 0.00075  0.03 0.09 0.00075  0.045 0.09 0.00075  0.06 0.09 0.00075  0.075 0.09 0.00075  0.09 0.09 0.00075  0.105 0.09 0.00075  0.12 0.09 0.00075  0.135 0.09 0.00075  0.15 0.09 0.00075  0.165 0.09 0.00075  0.18 0.09 0.00075  0.195 0.09 0.00075  0.21 0.09 0.00075  0.225 0.09 0.00075  0.24 0.09 0.00075  0.255 0.09 0.00075  0.27 0.09 0.00075  0.285 0.09 0.00075  0.3 0.09 0.00075  0 0.105 0.00075  0.015 0.105 0.00075  0.03 0.105 0.00075  0.045 0.105 0.00075  0.06 0.105 0.00075  0.075 0.105 0.00075  0.09 0.105 0.00075  0.105 0.105 0.00075  0.12 0.105 0.00075  0.135 0.105 0.00075  0.15 0.105 0.00075  0.165 0.105 0.00075  0.18 0.105 0.00075  0.195 0.105 0.00075  0.21 0.105 0.00075  0.225 0.105 0.00075  0.24 0.105 0.00075  0.255 0.105 0.00075  0.27 0.105 0.00075  0.285 0.105 0.00075  0.3 0.105 0.00075  0 0.12 0.00075  0.015 0.12 0.00075  0.03 0.12 0.00075  0.045 0.12 0.00075  0.06 0.12 0.00075  0.075 0.12 0.00075  0.09 0.12 0.00075  0.105 0.12 0.00075  0.12 0.12 0.00075  0.135 0.12 0.00075  0.15 0.12 0.00075  0.165 0.12 0.00075  0.18 0.12 0.00075  0.195 0.12 0.00075  0.21 0.12 0.00075  0.225 0.12 0.00075  0.24 0.12 0.00075  0.255 0.12 0.00075  0.27 0.12 0.00075  0.285 0.12 0.00075  0.3 0.12 0.00075  0 0.135 0.00075  0.015 0.135 0.00075  0.03 0.135 0.00075  0.045 0.135 0.00075  0.06 0.135 0.00075  0.075 0.135 0.00075  0.09 0.1
[...]
<PointData  Vectors="f_205"> 
<DataArray  type="Float64"  Name="f_205"  NumberOfComponents="3" format="ascii">-2.4081330221463304e+01 -4.9722242057028772e+01 -1.9650152589349443e+00  -1.9728344016969711e+01 -4.8076595034761112e+01 -1.9818677479836384e+00  -1.5463215768826213e+01 -4.6330375880731559e+01 -1.9605467565933736e+00  -1.1356271227617601e+01 -4.4502827246890462e+01 -1.9255341402447776e+00  -7.4297967640348768e+00 -4.2624748139427801e+01 -1.8864664741800783e+00  -3.6846283093495775e+00 -4.0714917838349642e+01 -1.8461707489596113e+00  -1.1274261457197524e-01 -3.8781481277985826e+01 -1.8063776459862089e+00  3.3000130638529579e+00 -3.6823344478571300e+01 -1.7692839261843940e+00  6.5740807976107876e+00 -3.4825194957705378e+01 -1.7359024845898754e+00  9.7281808081115333e+00 -3.2746173227538591e+01 -1.6991320308579765e+00  1.2744611657856248e+01 -3.0520596270806458e+01 -1.6376316185426525e+00  1.5537440613735306e+01 -2.8107898059490569e+01 -1.5358781820155978e+00  1.8016408140521730e+01 -2.5548346486264329e+01 -1.4115364331194618e+00  2.0153509745689846e+01 -2.2915203321618726e+01 -1.2837050612340966e+00  2.1961902830836937e+01 -2.0259044802107415e+01 -1.1570941297029067e+00  2.3461410577955029e+01 -1.7605598802643499e+01 -1.0299923209284381e+00  2.4666918603093851e+01 -1.4970497782285170e+01 -9.0009100163141953e-01  2.5588152985451035e+01 -1.2370401091406059e+01 -7.6622445391858962e-01  2.6234485413261048e+01 -9.8331648024674738e+00 -6.3297094758441652e-01  2.6641729331630366e+01 -7.4043391604588988e+00 -5.2313146344784967e-01  2.6940448283235497e+01 -5.1107846081306407e+00 -4.7760504527706443e-01  -2.5726758304591449e+01 -4.5392473301258228e+01 -1.9362351915074532e+00  -2.1399835044196006e+01 -4.3830742472540599e+01 -1.9621732096516593e+00  -1.7177162112096415e+01 -4.2229717000363486e+01 -1.9430085767280489e+00  -1.3115254360250319e+01 -4.0570926007794263e+01 -1.9055516079881887e+00  -9.2284295357950530e+00 -3.8866018680012637e+01 -1.8631862610241663e+00  -5.5181467334635554e+00 -3.7126046685261812e+01 -1.8196756173256248e+00  -1.9815272434791258e+00 -3.5355108700758095e+01 -1.7764442307707586e+00  1.3875902054612150e+00 -3.3549253902392920e+01 -1.7348807793715755e+00  4.5982943395274827e+00 -3.1694447955505641e+01 -1.6953548891421559e+00  7.6576526369709370e+00 -2.9764925778737471e+01 -1.6525153924090246e+00  1.0551914120339696e+01 -2.7729528681514388e+01 -1.5898967938901751e+00  1.3225779679761056e+01 -2.5571541489943765e+01 -1.4913587114773434e+00  1.5615209155521129e+01 -2.3306377923461927e+01 -1.3671579768719295e+00  1.7698523744563776e+01 -2.0971470111260476e+01 -1.2364189214445476e+00  1.9483459403357990e+01 -1.8603098906203375e+01 -1.1062512806867231e+00  2.0981847148598089e+01 -1.6226730996180368e+01 -9.7577295941280706e-01  2.2203089799803585e+01 -1.3860350387116185e+01 -8.4278305045350166e-01  2.3154460249822211e+01 -1.1520528641729120e+01 -7.0631048244516670e-01  2.3843314780205223e+01 -9.2268132996962873e+00 -5.7094355460738389e-01  2.4295101754974450e+01 -6.9974243801453273e+00 -4.5804850357466076e-01  2.4612451330131506e+01 -4.8119641316623296e+00 -4.0316306178695455e-01  -2.7284777340648660e+01 -4.1038209126399863e+01 -1.9079628473002184e+00  -2.2970924014399031e+01 -3.9588943351365572e+01 -1.9372625431489916e+00  -1.8760051211261160e+01 -3.8129883330877654e+01 -1.9196856310154238e+00  -1.4719463339785619e+01 -3.6636977825847062e+01 -1.8799928457307136e+00  -1.0859839699458700e+01 -3.5106130353450766e+01 -1.8340572250376557e+00  -7.1799916878953960e+00 -3.3539425134891943e+01 -1.7863840418958392e+00  -3.6778079049774015e+00 -3.1936901956550649e+01 -1.7379962812810201e+00  -3.5048169500350418e-01 -3.0293566709822493e+01 -1.6892540412524264e+00  2.8054752557268574e+00 -2.8598634276335140e+01 -1.6394568861219858e+00  5.7908687022203758e+00 -2.6837659339156207e+01 -1.5843643572573207e+00  8.5933723114401719e+00 -2.4999369216876126e+01 -1.5137168552769125e+00  1.1176297036066464e+01 -2.3082028708980140e+01 -1.4172266112208824e+00  1.3495298086792108e+01 -2.1091925435017178e+01 -1.2994252891544189e+00  1.5532159183790831e+01 -1.9044186922386036e+01 -1.1727023393242644e+00  1.7290730972266971e+01 -1.6959693594392665e+01 -1.0435090812753167e+00  1.8778076728738736e+01 -1.4859073586106604e+01 -9.1222928596441877e-01  1.9999061803042760e+01 -1.2759762139133267e+01 -7.7762034690050608e-01  2.0956595209665512e+01 -1.0676580036968263e+01 -6.3942488604266534e-01  2.1653497255118275e+01 -8.6218635881192451e+00 -5.0314269726316185e-01  2.2111340955067508e+01 -6.5987401510465187e+00 -3.9130538385054209e-01  2.2434340805745304e+01 -4.5775520464469315e+00 -3.3879411680395866e-01  -2.8706204516746226e+01 -3.6656927104632025e+01 -1.8832002721611873e+00  -2.4401502815623580e+01 -3.5347447280326534e+01 -1.9136087811911147e+00  -2.0195933058244552e+01 -3.4039628320476396e+01 -1.8961296722723588e+00  -1.6165374424954393e+01 -3.2712192269645463e+01 -1.8547217490087657e+00  -1.2322970856707601e+01 -3.1355495251786824e+01 -1.8055395219231969e+00  -8.6665668444412614e+00 -2.9965594592646593e+01 -1.7534646470530413e+00  -5.1937307403498689e+00 -2.8539438128621889e+01 -1.6993375976616483e+00  -1.9029498817058141e+00 -2.7072098722716788e+01 -1.6429185378244584e+00  1.2063082520640864e+00 -2.5556418977153449e+01 -1.5830089123530866e+00  4.1313819107922338e+00 -2.3985348130710765e+01 -1.5164677856149684e+00  6.8609994271752983e+00 -2.2356261743532720e+01 -1.4376257747825469e+00  9.3706791366339424e+00 -2.0671894379393013e+01 -1.3413937853854838e+00  1.1631522715556835e+01 -1.8935489637587938e+01 -1.2296368138642575e+00  1.3628531534640720e+01 -1.7153594761420933e+01 -1.1085026257611545e+00  1.5360968626741480e+01 -1.5338236657040172e+01 -9.8207015979406431e-01  1.6831750084332455e+01 -1.3504043318631251e+01 -8.5139988783764908e-01  1.8042641645761087e+01 -1.1664978104718147e+01 -7.1631374956493565e-01  1.8993666897292933e+01 -9.8325712279258912e+00 -5.7736081025537600e-01  1.9685280050525392e+01 -8.0139357975038319e+00 -4.4078891786395180e-01  2.0138744221525453e+01 -6.2061060303637605e+00 -3.2983132228105821e-01  2.0461681148012882e+01 -4.3845868850833254e+00 -2.7886503246156441e-01  -2.9965963224953249e+01 -3.2254619593606883e+01 -1.8628023326471805e+00  -2.5668574558411638e+01 -3.1104476260290642e+01 -1.8931155948103982e+00  -2.1467175145812657e+01 -2.9958925953220060e+01 -1.8747181074902455e+00  -1.7443113862985101e+01 -2.8801188237931122e+01 -1.8313203987961086e+00  -1.3612572174969229e+01 -2.7620939483474494e+01 -1.7790620499671312e+00  -9.9742171907565140e+00 -2.6411874627419010e+01 -1.7228066148162180e+00  -6.5257842727631505e+00 -2.5169386459245949e+01 -1.6633119221733239e+00  -3.2664255673627003e+00 -2.3889000206701660e+01 -1.6001651562632622e+00  -1.9705242429488215e-01 -2.2566223125976304e+01 -1.5322086195496141e+00  2.6783099672018102e+00 -2.1198018558000165e+01 -1.4573005975117153e+00  5.3499721238889624e+00 -1.9784749634925507e+01 -1.3724222706217726e+00  7.8012477444619321e+00 -1.8329348605566778e+01 -1.2752523226361046e+00  1.0013374124341228e+01 -1.6833917227473126e+01 -1.1665525422206866e+00  1.1974545824748265e+01 -1.5302276619190046e+01 -1.0490388606901271e+00  1.3681095607106332e+01 -1.3742183034988418e+01 -9.2487689148910890e-01  1.5132613601020367e+01 -1.2163672149489617e+01 -7.9507452452363470e-01  1.6328668350389130e+01 -1.0576738849936085e+01 -6.6001478754093368e-01  1.7267745123783737e+01 -8.9894247694857423e+00 -5.2081245568964241e-01  1.7949607176191975e+01 -7.4055095281116641e+00 -3.8419752625581055e-01  1.8396397095024764e+01 -5.8206918289247955e+00 -2.7364198118183264e-01  1.8717710803556496e+01 -4.2184539614489109e+00 -2.2299311817652354e-01  -3.1050049657116876e+01 -2.7837889542128295e+01 -1.8471101114997139e+00  -2.6758717016994559e+01 -2.6860274725044658e+01 -1.8766067773809145e+00  -2.2561425627663748e+01 -2.5886797285596803e+01 -1.8566562835910763e+00  -1.8542993836927966e+01 -2.4904771085300847e+01 -1.8109567432373253e+00  -1.4721993028716323e+01 -2.3905136068404463e+01 -1.7556724114335132e+00  -1.1098359656609526e+01 -2.2881345081219422e+01 -1.6955876673073820e+00  -7.6704649715459166e+00 -2.1828479687475728e+01 -1.6314082380801274e+00  -4.4379890487078137e+00 -2.0742618416325993e+01 -1.5627494929901038e+00  -1.4024504871609755e+00 -1.9620828865496875e+01 -1.4887046989092787e+00  1.4319830037446319e+00 -1.8461865590616554e+01 -1.4078918014943567e+00  4.0574089278036807e+00 -1.7266742495245627e+01 -1.3186868296575065e+00  6.4621232187068669e+00 -1.6037675961459271e+01 -1.2199926557311846e+00  8.6334608273077205e+00 -1.4776326661377031e+01 -1.1120833429131494e+00  1.0562191874305132e+01 -1.3485564000466718e+01 -9.9610703412423396e-01  1.2243488043059763e+01 -1.2170814926612616e+01 -8.7314929115094220e-01  1.3674911431768580e+01 -1.0838986974845060e+01 -7.4393755261507477e-01  1.4854555518551956e+01 -9.4969247362650222e+00 -6.0899866700206895e-01  1.5780134096526552e+01 -8.1499228039636140e+00 -4.6972634411849962e-01  1.6451477298624965e+01 -6.7999005193391620e+00 -3.3309136132513611e-01  1.6891676791608212e+01 -5.4432120564887647e+00 -2.2252586581117970e-01  1.7210874337083879e+01 -4.0701650473099260e+00 -1.7135382330255769e-01  -3.1950186818788367e+01 -2.3412040648469713e+01 -1.8362766658800762e+00  -2.7663789371982272e+01 -2.2615782836712064e+01 -1.8644901629153949e+00  -2.3470458140139030e+01 -2.1822405693443965e+01 -1.8426198741565480e+00  -1.9457432322670353e+01 -2.1022152228359939e+01 -1.7944402909491661e+00  -1.5644955346344746e+01 -2.0207919366820011e+01 -1.7362073944595355e+00  -1.2034056826163848e+01 -1.9373844166912271e+01 -1.6726490499914377e+00  -8.6238129718325212e+00 -1.8515342954229595e+01 -1.6044464172645856e+00  -5.4143424625193690e+00 -1.7629042457004775e+01 -1.5313005310960204e+00  -2.4073500077124899e+00 -1.6712825132725822e+01 -1.4525643386849569e+00  3.9338180478044577e-01 -1.5766070095314289e+01 -1.3673673781649376e+00  2.9815753202950885e+00 -1.4789639338429286e+01 -1.2748047218588394e+00  5.3487571884801497e+00 -1.3785061512370190e+01 -1.1743045209275425e+00  7.4859257503350545e+00 -1.2753739509743225e+01 -1.0659261225652172e+00  9.3857603833868755e+00 -1.1697997691252795e+01 -9.5014225233965766e-01  1.1043286625603834e+01 -1.0621754371516392e+01 -8.2748995684133708e-01  1.2455120740553181e+01 -9.5298140950393933e+00 -6.9844031440417265e-01  1.3618535419056215e+01 -8.4268467640581015e+00 -5.6348637267518942e-01  1.4530910286247860e+01 -7.3163333444277194e+00 -4.2411041711181785e-01  1.5192364708447979e+01 -6.1993468049759484e+00 -2.8735128778337582e-01  1.5626648244878306e+01 -5.0734925537714357e+00 -1.7645680575636907e-01  1.5943546763203445e+01 -3.9339646274938556e+00 -1.2426434622857788e-01  -3.2661569254595143e+01 -1.8980943580724297e+01 -1.8304964426979498e+00  -2.8378712524899907e+01 -1.8372030749685479e+01 -1.8570198236551296e+00  -2.4188632892680605e+01 -1.7765170792653290e+01 -1.8330150625518489e+00  -2.0180670216103994e+01 -1.7151964861833303e+01 -1.7822951072238566e+00  -1.6376106840818441e+01 -1.6527712092309294e+01 -1.7212539267008797e+00  -1.2776636376701049e+01 -1.5887439408367090e+01 -1.6545549398037003e+00  -9.3818569128803659e+00 -1.5227097563427600e+01 -1.5828702022190604e+00  -6.1921827197329034e+00 -1.4543804235794772e+01 -1.5059929399336396e+00  -3.2092955152272231e+00 -1.3835857185812134e+01 -1.4234829924229493e+00  -4.3644299602295666e-01 -1.3102750138669721e+01 -1.3347954618811655e+00  2.1214211882661056e+00 -1.2344986436063866e+01 -1.2394044256528378e+00  4.4579681754155276e+00 -1.1563548537982806e+01 -1.1369787291274136e+00  6.5664874551852224e+00 -1.0759565268630364e+01 -1.0274914512779201e+00  8.4410584908545196e+00 -9.9348754030630388e+00 -9.1112637533045693e-01  1.0077003332706905e+01 -9.0923190781600152e+00 -7.8814696289999220e-01  1.1470658722620275e+01 -8.2352796832476098e+00 -6.5884609452382203e-01  1.2618963809197162e+01 -7.3670144988390751e+00 -5.2364031161167157e-01  1.3519224822525935e+01 -6.4899445976592887e+00 -3.8400705374295757e-01  1.4171856032305481e+01 -5.6049170940287771e+00 -2.4695331791414959e-01  1.4600950526262066e+01 -4.7108058713829246e+00 -1.3548081998483627e-01  1.4915483879139300e+01 -3.8060451577394145e+00 -8.1985339374526220e-02  -3.3182152104221636e+01 -1.4546788304925427e+01 -1.8306805426917225e+00  -2.8900288823177206e+01 -1.4129885271684863e+01 -1.8548130192801526e+00  -2.4711565816867381e+01 -1.3714696729604498e+01 -1.8283449180571336e+00  -2.0707969654492615e+01 -1.3292617692518292e+01 -1.7749259159038853e+00  -1.6910888777854407e+01 -1.2862340708355704e+01 -1.7112295541871456e+00  -1.3321949002094103e+01 -1.2419440765664238e+01 -1.6416817839652431e+00  -9.9409721157770736e+00 -1.1960332426583118e+01 -1.5669251607468562e+00  -6.7685087129226860e+00 -1.1482552757961505e+01 -1.4868416702938347e+00  -3.8061137859036749e+00 -1.0984626699528992e+01 -1.4011469405195562e+00  -1.0565129831902655e+00 -1.0465976519792784e+01 -1.3095016668417283e+00  1.4763651419349237e+00 -9.9267340644717788e+00 -1.2115890302319117e+00  3.7876547654220882e+00 -9.3674302468117894e+00 -1.1072012502232742e+00  5.8721536195166060e+00 -8.7888651966157472e+00 -9.9628336875802048e-01  7.7249823525765153e+00 -8.1923967576877992e+00 -8.7889491698571531e-01  9.3419036200250378e+00 -7.5800525912049439e+00 -7.5516214314762398e-01  1.0719314516054963e+01 -6.9542430974685070e+00 -6.2526595078172553e-01  1.1854110898082983e+01 -6.3173363065681958e+00 -4.8955153338543544e-01  1.2743660587303912e+01 -5.6712057179809561e+00 -3.4945611367478818e-01  1.3388610014889366e+01 -5.0168162483059202e+00 -2.1190970364190906e-01  1.3813163620008535e+01 -4.3541529641966461e+00 -9.9654855469322901e-02  1.4125322716463538e+01 -3.6837627515939131e+00 -4.4691966929206191e-02  -3.3509659952743135e+01 -1.0105904076267818e+01 -1.8386016223175243e+00  -2.9226165245569451e+01 -9.8885251852129663e+00 -1.8600835916369305e+00  -2.5034761903625572e+01 -9.6695068048438415e+00 -1.8303421106333455e+00  -2.1034623596091073e+01 -9.4420105458587571e+00 -1.7730053002680264e+00  -1.7245230273610971e+01 -9.2093162121407985e+00 -1.7065388881652126e+00  -1.3666441711619647e+01 -8.9669096358910760e+00 -1.6343173676345981e+00  -1.0298076042105398e+01 -8.7115873707604834e+00 -1.5567629427361516e+00  -7.1407809656388883e+00 -8.4412830911488843e+00 -1.4738174267131936e+00  -4.1959799088354695e+00 -8.1546782334495198e+00 -1.3853096466328818e+00  -1.4659585605237555e+00 -7.8510740652330080e+00 -1.2910307203941689e+00  1.0461287634125578e+00 -7.5302645051107957e+00 -1.1907845795401979e+00  3.3364425159417537e+00 -7.1923787641878203e+00 -1.0844337008240004e+00  5.4008228710061932e+00 -6.8378461174909857e+00 -9.7191934073556452e-01  7.2351800108990441e+00 -6.4675497510537276e+00 -8.5324766459930179e-01  8.8357268124059285e+00 -6.0828741628109109e+00 -7.2847495914693394e-01  1.0199059532504009e+01 -5.6855429010076932e+00 -5.9771357868141839e-01  1.1322162328072185e+01 -5.2773713550811978e+00 -4.6125258368940469e-01  1.2202503719952436e+01 -4.8600049428376133e+00 -3.2048113736594336e-01  1.2840878492910878e+01 -4.4347071383045495e+00 -1.8223995976148774e-01  1.3261453050399661e+01 -4.0024201265576709e+00 -6.9026230185915138e-02  1.3571255124634087e+01 -3.5651394430073462e+00 -1.2492644382610796e-02  -3.3634457645328688e+01 -5.6473420391738598e+00 -1.8534966229248206e+00  -2.9348352080994026e+01 -5.6351558389494443e+00 -1.8735465099532640e+00  -2.5155272997066806e+01 -5.6184911191567011e+00 -1.8431064563270005e+00  -2.1156393857424845e+01 -5.5960667219893345e+00 -1.7776904179724979e+00  -1.7376113028989455e+01 -5.5658101910829894e+00 -1.7076435765547384e+00  -1.3807563164452734e+01 -5.5269089612132962e+00 -1.6327008737014113e+00  -1.0450861432104706e+01 -5.4775904530453365e+00 -1.5524829383455585e+00  -7.3070267667054365e+00 -5.4164077688907302e+00 -1.4668817544394868e+00  -4.3774405900668558e+00 -5.3422221712195901e+00 -1.3757886985357337e+00  -1.6640417151599625e+00 -5.2542195869349024e+00 -1.2790736567773975e+00  8.3060533712596574e-01 -5.1518901067467553e+00 -1.1766115572236722e+00  3.1034084124876529e+00 -5.0349842710518482e+00 -1.0683073500705995e+00  5.1509646070539867e+00 -4.9035333092012925e+00 -9.5410676795952121e-01  6.9697980043879948e+00 -4.7579511892500506e+00 -8.3399291519017049e-01  8.5565301475613236e+00 -4.5990778505298255e+00 -7.0798466784244729e-01  9.9079871126881969e+00 -4.4281177773632541e+00 -5.7615088212374999e-01  1.1021268819484263e+01 -4.2465324983464381e+00 -4.3873753405936849e-01  1.1893914860905991e+01 -4.0559254320060587e+00 -2.9708831490866455e-01  1.2526770178839353e+01 -3.8579591030570657e+00 -1.5795857184720263e-01  1.2943862167767032e+01 -3.6544517602684339e+00 -4.3627144335716642e-02  1.3251323955296423e+01 -3.4485427762438259e+00 1.4550373863313799e-02  -3.3534143071093006e+01 -1.1917386210886223e+00 -1.8672091728595488e+00  -2.9254717187214975e+01 -1.3857997662024919e+00 -1.8855018691823442e+00  -2.5071021268343969e+01 -1.5709543111969180e+00 -1.8500361726740870e+00  -2.1078945866403707e+01 -1.7539960333216109e+00 -1.7863290143101778e+00  -1.7305422787822856e+01 -1.9301301323380324e+00 -1.7143047929610020e+00  -1.3744765180198474e+01 -2.0970826395770827e+00 -1.6368978764176658e+00  -1.0397933461672038e+01 -2.2555118172416067e+00 -1.5541269567439080e+00  -7.2657783081792831e+00 -2.4048097327844240e+00 -1.4659930183839252e+00  -4.3493345940171917e+00 -2.5440218753774850e+00 -1.3724484403112742e+00  -1.6501251064327427e+00 -2.6722105482301854e+00 -1.2734144161371923e+00  8.2979394202956080e-01 -2.7885715576077597e+00 -1.1688081446839556e+00  3.0879124522040349e+00 -2.8924786019746862e+00 -1.0585601232792279e+00  5.1214097648380115e+00 -2.9835421328138798e+00 -9.4262123159136368e-01  6.9273055946669002e+00 -3.0617010212459324e+00 -8.2096344384259468e-01  8.5025803086841272e+00 -3.1272901327551050e+00 -6.9358304922230596e-01  9.8442735305041467e+00 -3.1810685319385095e+00 -5.6051826429739093e-01  1.0949571653859566e+01 -3.2242349613820060e+00 -4.2198009012137677e-01  1.1816009479434046e+01 -3.2584425027162816e+00 -2.7927128294733855e-01  1.2444362269074809e+01 -3.2858189205661517e+00 -1.3907164066799052e-01  1.2858424885190315e+01 -3.3090722684346310e+00 -2.3474008707791736e-02  1.3163533264388221e+01 -3.3324632179481983e+00 3.6408175689213958e-02  -3.3227499410440551e+01 3.2494026333829482e+00 -1.8875948444108464e+00  -2.8955197663349129e+01 2.8501184891390365e+00 -1.9041504946181198e+00  -2.4779505107072382e+01 2.4603687752545129e+00 -1.8670140802793196e+00  -2.0795567588984479e+01 2.0751305380583336e+00 -1.8021858745114494e+00  -1.7026970982367992e+01 1.6969011855799436e+00 -1.7277831833305128e+00  -1.3474093455378981e+01 1.3241469695656694e+00 -1.6473832518836906e+00  -1.0136769413164233e+01 9.5705272145854703e-01 -1.5618457817471922e+00  -7.0153193594512819e+00 5.9623759664733944e-01 -1.4711455444585260e+00  -4.1105076803853402e+00 2.4273440287221329e-01 -1.3751899229418054e+00  -1.4235728511480272e+00 -1.0229838368990196e-01 -1.2738939054293132e+00  1.0437936438563038e+00 -4.3773089041609670e-01 -1.1671838723292132e+00  3.2895173068168524e+00 -7.6254448924805085e-01 -1.0549986422820403e+00  5.3112351491420124e+00 -1.0759058192313331e+00 -9.3728963124953291e-01  7.1063844862275811e+00 -1.3772577927464398e+00 -8.1402057184503329e-01  8.6722704888946271e+00 -1.6664181102712814e+00 -6.8517084271572437e-01  1.0006126323764828e+01 -1.9436908861095132e+00 -5.5075345317803615e-01  1.1105178659537634e+01 -2.2100053138554148e+00 -4.1094775059540162e-01  1.1966854972872579e+01 -2.4670723020180150e+00 -2.6701800511582108e-01  1.2591707877447892e+01 -2.7175282349329457e+00 -1.2557810183369134e-01  1.3003171186466782e+01 -2.9650785337116865e+00 -8.5679509529949880e-03  1.3305848650322323e+01 -3.2153305724071419e+00 5.3080038771933603e-02  -3.2720210352905681e+01 7.6816773990183123e+00 -1.9149795433782895e+00  -2.8451439721650697e+01 7.0792274084551439e+00 -1.9299717