<?xml version="1.0"?>
<VTKFile type="UnstructuredGrid"  version="0.1"  >
<UnstructuredGrid>
<Piece  NumberOfPoints="9261" NumberOfCells="48000">
<Points>
<DataArray  type="Float64"  NumberOfComponents="3"  format="ascii">0 0 0  0.015 0 0  0.03 0 0  0.045 0 0  0.06 0 0  0.075 0 0  0.09 0 0  0.105 0 0  0.12 0 0  0.135 0 0  0.15 0 0  0.165 0 0  0.18 0 0  0.195 0 0  0.21 0 0  0.225 0 0  0.24 0 0  0.255 0 0  0.27 0 0  0.285 0 0  0.3 0 0  0 0.015 0  0.015 0.015 0  0.03 0.015 0  0.045 0.015 0  0.06 0.015 0  0.075 0.015 0  0.09 0.015 0  0.105 0.015 0  0.12 0.015 0  0.135 0.015 0  0.15 0.015 0  0.165 0.015 0  0.18 0.015 0  0.195 0.015 0  0.21 0.015 0  0.225 0.015 0  0.24 0.015 0  0.255 0.015 0  0.27 0.015 0  0.285 0.015 0  0.3 0.015 0  0 0.03 0  0.015 0.03 0  0.03 0.03 0  0.045 0.03 0  0.06 0.03 0  0.075 0.03 0  0.09 0.03 0  0.105 0.03 0  0.12 0.03 0  0.135 0.03 0  0.15 0.03 0  0.165 0.03 0  0.18 0.03 0  0.195 0.03 0  0.21 0.03 0  0.225 0.03 0  0.24 0.03 0  0.255 0.03 0  0.27 0.03 0  0.285 0.03 0  0.3 0.03 0  0 0.045 0  0.015 0.045 0  0.03 0.045 0  0.045 0.045 0  0.06 0.045 0  0.075 0.045 0  0.09 0.045 0  0.105 0.045 0  0.12 0.045 0  0.135 0.045 0  0.15 0.045 0  0.165 0.045 0  0.18 0.045 0  0.195 0.045 0  0.21 0.045 0  0.225 0.045 0  0.24 0.045 0  0.255 0.045 0  0.27 0.045 0  0.285 0.045 0  0.3 0.045 0  0 0.06 0  0.015 0.06 0  0.03 0.06 0  0.045 0.06 0  0.06 0.06 0  0.075 0.06 0  0.09 0.06 0  0.105 0.06 0  0.12 0.06 0  0.135 0.06 0  0.15 0.06 0  0.165 0.06 0  0.18 0.06 0  0.195 0.06 0  0.21 0.06 0  0.225 0.06 0  0.24 0.06 0  0.255 0.06 0  0.27 0.06 0  0.285 0.06 0  0.3 0.06 0  0 0.075 0  0.015 0.075 0  0.03 0.075 0  0.045 0.075 0  0.06 0.075 0  0.075 0.075 0  0.09 0.075 0  0.105 0.075 0  0.12 0.075 0  0.135 0.075 0  0.15 0.075 0  0.165 0.075 0  0.18 0.075 0  0.195 0.075 0  0.21 0.075 0  0.225 0.075 0  0.24 0.075 0  0.255 0.075 0  0.27 0.075 0  0.285 0.075 0  0.3 0.075 0  0 0.09 0  0.015 0.09 0  0.03 0.09 0  0.045 0.09 0  0.06 0.09 0  0.075 0.09 0  0.09 0.09 0  0.105 0.09 0  0.12 0.09 0  0.135 0.09 0  0.15 0.09 0  0.165 0.09 0  0.18 0.09 0  0.195 0.09 0  0.21 0.09 0  0.225 0.09 0  0.24 0.09 0  0.255 0.09 0  0.27 0.09 0  0.285 0.09 0  0.3 0.09 0  0 0.105 0  0.015 0.105 0  0.03 0.105 0  0.045 0.105 0  0.06 0.105 0  0.075 0.105 0  0.09 0.105 0  0.105 0.105 0  0.12 0.105 0  0.135 0.105 0  0.15 0.105 0  0.165 0.105 0  0.18 0.105 0  0.195 0.105 0  0.21 0.105 0  0.225 0.105 0  0.24 0.105 0  0.255 0.105 0  0.27 0.105 0  0.285 0.105 0  0.3 0.105 0  0 0.12 0  0.015 0.12 0  0.03 0.12 0  0.045 0.12 0  0.06 0.12 0  0.075 0.12 0  0.09 0.12 0  0.105 0.12 0  0.12 0.12 0  0.135 0.12 0  0.15 0.12 0  0.165 0.12 0  0.18 0.12 0  0.195 0.12 0  0.21 0.12 0  0.225 0.12 0  0.24 0.12 0  0.255 0.12 0  0.27 0.12 0  0.285 0.12 0  0.3 0.12 0  0 0.135 0  0.015 0.135 0  0.03 0.135 0  0.045 0.135 0  0.06 0.135 0  0.075 0.135 0  0.09 0.135 0  0.105 0.135 0  0.12 0.135 0  0.135 0.135 0  0.15 0.135 0  0.165 0.135 0  0.18 0.135 0  0.195 0.135 0  0.21 0.135 0  0.225 0.135 0  0.24 0.135 0  0.255 0.135 0  0.27 0.135 0  0.285 0.135 0  0.3 0.135 0  0 0.15 0  0.015 0.15 0  0.03 0.15 0  0.045 0.15 0  0.06 0.15 0  0.075 0.15 0  0.09 0.15 0  0.105 0.15 0  0.12 0.15 0  0.135 0.15 0  0.15 0.15 0  0.165 0.15 0  0.18 0.15 0  0.195 0.15 0  0.21 0.15 0  0.225 0.15 0  0.24 0.15 0  0.255 0.15 0  0.27 0.15 0  0.285 0.15 0  0.3 0.15 0  0 0.165 0  0.015 0.165 0  0.03 0.165 0  0.045 0.165 0  0.06 0.165 0  0.075 0.165 0  0.09 0.165 0  0.105 0.165 0  0.12 0.165 0  0.135 0.165 0  0.15 0.165 0  0.165 0.165 0  0.18 0.165 0  0.195 0.165 0  0.21 0.165 0  0.225 0.165 0  0.24 0.165 0  0.255 0.165 0  0.27 0.165 0  0.285 0.165 0  0.3 0.165 0  0 0.18 0  0.015 0.18 0  0.03 0.18 0  0.045 0.18 0  0.06 0.18 0  0.075 0.18 0  0.09 0.18 0  0.105 0.18 0  0.12 0.18 0  0.135 0.18 0  0.15 0.18 0  0.165 0.18 0  0.18 0.18 0  0.195 0.18 0  0.21 0.18 0  0.225 0.18 0  0.24 0.18 0  0.255 0.18 0  0.27 0.18 0  0.285 0.18 0  0.3 0.18 0  0 0.195 0  0.015 0.195 0  0.03 0.195 0  0.045 0.195 0  0.06 0.195 0  0.075 0.195 0  0.09 0.195 0  0.105 0.195 0  0.12 0.195 0  0.135 0.195 0  0.15 0.195 0  0.165 0.195 0  0.18 0.195 0  0.195 0.195 0  0.21 0.195 0  0.225 0.195 0  0.24 0.195 0  0.255 0.195 0  0.27 0.195 0  0.285 0.195 0  0.3 0.195 0  0 0.21 0  0.015 0.21 0  0.03 0.21 0  0.045 0.21 0  0.06 0.21 0  0.075 0.21 0  0.09 0.21 0  0.105 0.21 0  0.12 0.21 0  0.135 0.21 0  0.15 0.21 0  0.165 0.21 0  0.18 0.21 0  0.195 0.21 0  0.21 0.21 0  0.225 0.21 0  0.24 0.21 0  0.255 0.21 0  0.27 0.21 0  0.285 0.21 0  0.3 0.21 0  0 0.225 0  0.015 0.225 0  0.03 0.225 0  0.045 0.225 0  0.06 0.225 0  0.075 0.225 0  0.09 0.225 0  0.105 0.225 0  0.12 0.225 0  0.135 0.225 0  0.15 0.225 0  0.165 0.225 0  0.18 0.225 0  0.195 0.225 0  0.21 0.225 0  0.225 0.225 0  0.24 0.225 0  0.255 0.225 0  0.27 0.225 0  0.285 0.225 0  0.3 0.225 0  0 0.24 0  0.015 0.24 0  0.03 0.24 0  0.045 0.24 0  0.06 0.24 0  0.075 0.24 0  0.09 0.24 0  0.105 0.24 0  0.12 0.24 0  0.135 0.24 0  0.15 0.24 0  0.165 0.24 0  0.18 0.24 0  0.195 0.24 0  0.21 0.24 0  0.225 0.24 0  0.24 0.24 0  0.255 0.24 0  0.27 0.24 0  0.285 0.24 0  0.3 0.24 0  0 0.255 0  0.015 0.255 0  0.03 0.255 0  0.045 0.255 0  0.06 0.255 0  0.075 0.255 0  0.09 0.255 0  0.105 0.255 0  0.12 0.255 0  0.135 0.255 0  0.15 0.255 0  0.165 0.255 0  0.18 0.255 0  0.195 0.255 0  0.21 0.255 0  0.225 0.255 0  0.24 0.255 0  0.255 0.255 0  0.27 0.255 0  0.285 0.255 0  0.3 0.255 0  0 0.27 0  0.015 0.27 0  0.03 0.27 0  0.045 0.27 0  0.06 0.27 0  0.075 0.27 0  0.09 0.27 0  0.105 0.27 0  0.12 0.27 0  0.135 0.27 0  0.15 0.27 0  0.165 0.27 0  0.18 0.27 0  0.195 0.27 0  0.21 0.27 0  0.225 0.27 0  0.24 0.27 0  0.255 0.27 0  0.27 0.27 0  0.285 0.27 0  0.3 0.27 0  0 0.285 0  0.015 0.285 0  0.03 0.285 0  0.045 0.285 0  0.06 0.285 0  0.075 0.285 0  0.09 0.285 0  0.105 0.285 0  0.12 0.285 0  0.135 0.285 0  0.15 0.285 0  0.165 0.285 0  0.18 0.285 0  0.195 0.285 0  0.21 0.285 0  0.225 0.285 0  0.24 0.285 0  0.255 0.285 0  0.27 0.285 0  0.285 0.285 0  0.3 0.285 0  0 0.3 0  0.015 0.3 0  0.03 0.3 0  0.045 0.3 0  0.06 0.3 0  0.075 0.3 0  0.09 0.3 0  0.105 0.3 0  0.12 0.3 0  0.135 0.3 0  0.15 0.3 0  0.165 0.3 0  0.18 0.3 0  0.195 0.3 0  0.21 0.3 0  0.225 0.3 0  0.24 0.3 0  0.255 0.3 0  0.27 0.3 0  0.285 0.3 0  0.3 0.3 0  0 0 0.00075  0.015 0 0.00075  0.03 0 0.00075  0.045 0 0.00075  0.06 0 0.00075  0.075 0 0.00075  0.09 0 0.00075  0.105 0 0.00075  0.12 0 0.00075  0.135 0 0.00075  0.15 0 0.00075  0.165 0 0.00075  0.18 0 0.00075  0.195 0 0.00075  0.21 0 0.00075  0.225 0 0.00075  0.24 0 0.00075  0.255 0 0.00075  0.27 0 0.00075  0.285 0 0.00075  0.3 0 0.00075  0 0.015 0.00075  0.015 0.015 0.00075  0.03 0.015 0.00075  0.045 0.015 0.00075  0.06 0.015 0.00075  0.075 0.015 0.00075  0.09 0.015 0.00075  0.105 0.015 0.00075  0.12 0.015 0.00075  0.135 0.015 0.00075  0.15 0.015 0.00075  0.165 0.015 0.00075  0.18 0.015 0.00075  0.195 0.015 0.00075  0.21 0.015 0.00075  0.225 0.015 0.00075  0.24 0.015 0.00075  0.255 0.015 0.00075  0.27 0.015 0.00075  0.285 0.015 0.00075  0.3 0.015 0.00075  0 0.03 0.00075  0.015 0.03 0.00075  0.03 0.03 0.00075  0.045 0.03 0.00075  0.06 0.03 0.00075  0.075 0.03 0.00075  0.09 0.03 0.00075  0.105 0.03 0.00075  0.12 0.03 0.00075  0.135 0.03 0.00075  0.15 0.03 0.00075  0.165 0.03 0.00075  0.18 0.03 0.00075  0.195 0.03 0.00075  0.21 0.03 0.00075  0.225 0.03 0.00075  0.24 0.03 0.00075  0.255 0.03 0.00075  0.27 0.03 0.00075  0.285 0.03 0.00075  0.3 0.03 0.00075  0 0.045 0.00075  0.015 0.045 0.00075  0.03 0.045 0.00075  0.045 0.045 0.00075  0.06 0.045 0.00075  0.075 0.045 0.00075  0.09 0.045 0.00075  0.105 0.045 0.00075  0.12 0.045 0.00075  0.135 0.045 0.00075  0.15 0.045 0.00075  0.165 0.045 0.00075  0.18 0.045 0.00075  0.195 0.045 0.00075  0.21 0.045 0.00075  0.225 0.045 0.00075  0.24 0.045 0.00075  0.255 0.045 0.00075  0.27 0.045 0.00075  0.285 0.045 0.00075  0.3 0.045 0.00075  0 0.06 0.00075  0.015 0.06 0.00075  0.03 0.06 0.00075  0.045 0.06 0.00075  0.06 0.06 0.00075  0.075 0.06 0.00075  0.09 0.06 0.00075  0.105 0.06 0.00075  0.12 0.06 0.00075  0.135 0.06 0.00075  0.15 0.06 0.00075  0.165 0.06 0.00075  0.18 0.06 0.00075  0.195 0.06 0.00075  0.21 0.06 0.00075  0.225 0.06 0.00075  0.24 0.06 0.00075  0.255 0.06 0.00075  0.27 0.06 0.00075  0.285 0.06 0.00075  0.3 0.06 0.00075  0 0.075 0.00075  0.015 0.075 0.00075  0.03 0.075 0.00075  0.045 0.075 0.00075  0.06 0.075 0.00075  0.075 0.075 0.00075  0.09 0.075 0.00075  0.105 0.075 0.00075  0.12 0.075 0.00075  0.135 0.075 0.00075  0.15 0.075 0.00075  0.165 0.075 0.00075  0.18 0.075 0.00075  0.195 0.075 0.00075  0.21 0.075 0.00075  0.225 0.075 0.00075  0.24 0.075 0.00075  0.255 0.075 0.00075  0.27 0.075 0.00075  0.285 0.075 0.00075  0.3 0.075 0.00075  0 0.09 0.00075  0.015 0.09 0.00075  0.03 0.09 0.00075  0.045 0.09 0.00075  0.06 0.09 0.00075  0.075 0.09 0.00075  0.09 0.09 0.00075  0.105 0.09 0.00075  0.12 0.09 0.00075  0.135 0.09 0.00075  0.15 0.09 0.00075  0.165 0.09 0.00075  0.18 0.09 0.00075  0.195 0.09 0.00075  0.21 0.09 0.00075  0.225 0.09 0.00075  0.24 0.09 0.00075  0.255 0.09 0.00075  0.27 0.09 0.00075  0.285 0.09 0.00075  0.3 0.09 0.00075  0 0.105 0.00075  0.015 0.105 0.00075  0.03 0.105 0.00075  0.045 0.105 0.00075  0.06 0.105 0.00075  0.075 0.105 0.00075  0.09 0.105 0.00075  0.105 0.105 0.00075  0.12 0.105 0.00075  0.135 0.105 0.00075  0.15 0.105 0.00075  0.165 0.105 0.00075  0.18 0.105 0.00075  0.195 0.105 0.00075  0.21 0.105 0.00075  0.225 0.105 0.00075  0.24 0.105 0.00075  0.255 0.105 0.00075  0.27 0.105 0.00075  0.285 0.105 0.00075  0.3 0.105 0.00075  0 0.12 0.00075  0.015 0.12 0.00075  0.03 0.12 0.00075  0.045 0.12 0.00075  0.06 0.12 0.00075  0.075 0.12 0.00075  0.09 0.12 0.00075  0.105 0.12 0.00075  0.12 0.12 0.00075  0.135 0.12 0.00075  0.15 0.12 0.00075  0.165 0.12 0.00075  0.18 0.12 0.00075  0.195 0.12 0.00075  0.21 0.12 0.00075  0.225 0.12 0.00075  0.24 0.12 0.00075  0.255 0.12 0.00075  0.27 0.12 0.00075  0.285 0.12 0.00075  0.3 0.12 0.00075  0 0.135 0.00075  0.015 0.135 0.00075  0.03 0.135 0.00075  0.045 0.135 0.00075  0.06 0.135 0.00075  0.075 0.135 0.00075  0.09 0.1
[...]
<PointData  Vectors="f_205"> 
<DataArray  type="Float64"  Name="f_205"  NumberOfComponents="3" format="ascii">-2.4216334939145391e+01 -4.7649485343944946e+01 -1.8260539374012634e+00  -2.0115124901434243e+01 -4.6276780224164320e+01 -1.8550225643908327e+00  -1.6022305918709339e+01 -4.4858738959450228e+01 -1.8590144733582039e+00  -1.1985287809341729e+01 -4.3349302158748344e+01 -1.8441217148728244e+00  -8.0505097907872738e+00 -4.1732791901548303e+01 -1.8158950737263768e+00  -4.2540360878574761e+00 -4.0010222286804748e+01 -1.7785286331629031e+00  -6.2026869440183385e-01 -3.8188156036598791e+01 -1.7344688966340982e+00  2.8343686805540278e+00 -3.6272013322552581e+01 -1.6843833566199142e+00  6.0961591938115367e+00 -3.4264002496776953e+01 -1.6275211901664426e+00  9.1497312528779577e+00 -3.2164730482931844e+01 -1.5623763487785327e+00  1.1976124739814331e+01 -2.9976875537016891e+01 -1.4874828844444548e+00  1.4553732458784982e+01 -2.7709039478623840e+01 -1.4020946904576277e+00  1.6861471935820894e+01 -2.5378196110466895e+01 -1.3065259376153457e+00  1.8882862046210285e+01 -2.3010048968113320e+01 -1.2021269736510558e+00  2.0609856212375600e+01 -2.0637629105925534e+01 -1.0911306880409237e+00  2.2046172649494132e+01 -1.8298815603744409e+01 -9.7669809101845617e-01  2.3210617459634939e+01 -1.6032770875518260e+01 -8.6330320564898055e-01  2.4140561197517403e+01 -1.3874035909242917e+01 -7.5725521801028550e-01  2.4894125930330365e+01 -1.1842498761763618e+01 -6.6696039248795280e-01  2.5547793706320899e+01 -9.9286097105401971e+00 -6.0241678060413573e-01  2.6184815248447364e+01 -8.0811659567847780e+00 -5.7367126469469931e-01  -2.5608739509484870e+01 -4.3561248131418076e+01 -1.8022291584676120e+00  -2.1530059244958299e+01 -4.2234519783307896e+01 -1.8377411654776672e+00  -1.7483593162422352e+01 -4.0905032342406528e+01 -1.8459986225986669e+00  -1.3513581792686869e+01 -3.9516607595585896e+01 -1.8325128455153916e+00  -9.6572323142604368e+00 -3.8043918509238161e+01 -1.8035626023648592e+00  -5.9432435820946221e+00 -3.6480069213038888e+01 -1.7641688794578154e+00  -2.3921317008925032e+00 -3.4826642601268709e+01 -1.7174627021230040e+00  9.8111730231451211e-01 -3.3087269673810525e+01 -1.6645488745273855e+00  4.1635834314697435e+00 -3.1264943446840174e+01 -1.6048581368056880e+00  7.1416028002754350e+00 -2.9362378051744692e+01 -1.5368606648188479e+00  9.8995802975505836e+00 -2.7384172944282902e+01 -1.4589435786730167e+00  1.2420739337516521e+01 -2.5339376935098411e+01 -1.3701909745769134e+00  1.4689396090162518e+01 -2.3243266918066091e+01 -1.2708218569400540e+00  1.6693851254257773e+01 -2.1117712938402189e+01 -1.1622294688890729e+00  1.8429072665245634e+01 -1.8990110868597728e+01 -1.0468402326151574e+00  1.9898941898264301e+01 -1.6891089738572997e+01 -9.2813771589444771e-01  2.1118407267745759e+01 -1.4850841624182358e+01 -8.1102142653291676e-01  2.2115781132732341e+01 -1.2893243331118811e+01 -7.0228724597544867e-01  2.2934609173592129e+01 -1.1026760187373775e+01 -6.1073392203689136e-01  2.3634047621925486e+01 -9.2317237689407197e+00 -5.4616537560856093e-01  2.4289250297222715e+01 -7.4447304377788139e+00 -5.1371399984372934e-01  -2.6968027467356759e+01 -3.9437538746111926e+01 -1.7770887203169019e+00  -2.2908155228536685e+01 -3.8183714188337127e+01 -1.8163741548602907e+00  -1.8884333524860896e+01 -3.6948647207741246e+01 -1.8286600466046157e+00  -1.4948665445260550e+01 -3.5680527392720315e+01 -1.8163936469307433e+00  -1.1137693618732346e+01 -3.4349899433401688e+01 -1.7863411292935472e+00  -7.4769999436824461e+00 -3.2944147322090458e+01 -1.7442969648277289e+00  -3.9839077661177824e+00 -3.1460339113146002e+01 -1.6940661409295994e+00  -6.7075026728354614e-01 -2.9899952653113374e+01 -1.6372389869988064e+00  2.4518742981669348e+00 -2.8266108873285923e+01 -1.5735493402201983e+00  5.3727316854403666e+00 -2.6563004778428148e+01 -1.5016238061928471e+00  8.0790267047570588e+00 -2.4796755604084517e+01 -1.4198929278526280e+00  1.0557046124378246e+01 -2.2976720921262796e+01 -1.3274069212252284e+00  1.2793981426767575e+01 -2.1116518276204367e+01 -1.2243268101423195e+00  1.4780189637841932e+01 -1.9234216207298758e+01 -1.1120341002987983e+00  1.6511253797505098e+01 -1.7351488206540001e+01 -9.9305918213711675e-01  1.7989755707631602e+01 -1.5491612758506131e+01 -8.7115509745148867e-01  1.9227228721100428e+01 -1.3676085823937653e+01 -7.5167669731910658e-01  2.0246725170368798e+01 -1.1919362684537912e+01 -6.4203266885978294e-01  2.1085822343958473e+01 -1.0221482380692006e+01 -5.5168547389385625e-01  2.1799641058969765e+01 -8.5586716445069477e+00 -4.9082623073446474e-01  2.2466758529433708e+01 -6.8725361899464934e+00 -4.6242979438813953e-01  -2.8235249586232548e+01 -3.5272160166184342e+01 -1.7539401029375208e+00  -2.4192395761702578e+01 -3.4121807321023418e+01 -1.7955200755576255e+00  -2.0182498228025501e+01 -3.2996924021957760e+01 -1.8103141854367670e+00  -1.6264889281616632e+01 -3.1854854638429902e+01 -1.7988777153947668e+00  -1.2479342594791561e+01 -3.0667640521228908e+01 -1.7677350487739709e+00  -8.8515493254776150e+00 -2.9420379011796289e+01 -1.7230347502512688e+00  -5.3974307064870217e+00 -2.8107291793508999e+01 -1.6690687468756895e+00  -2.1273158363877629e+00 -2.6728045643339353e+01 -1.6079126641498376e+00  9.5042366544001833e-01 -2.5285369353603873e+01 -1.5397401484229623e+00  3.8269108348457572e+00 -2.3784029077354958e+01 -1.4635428726432524e+00  6.4917810280101440e+00 -2.2230771991853167e+01 -1.3779987038929316e+00  8.9336317904446751e+00 -2.0634714616796643e+01 -1.2822508373839281e+00  1.1141498019081615e+01 -1.9007700014105676e+01 -1.1764100431568778e+00  1.3106723077277064e+01 -1.7364255273567423e+01 -1.0617398040903647e+00  1.4824744059646616e+01 -1.5720869351726773e+01 -9.4069546079165289e-01  1.6296822337866686e+01 -1.4094329333281085e+01 -8.1708963662498657e-01  1.7532264799707040e+01 -1.2498890685708545e+01 -6.9650748919768113e-01  1.8551599819804132e+01 -1.0942003621285057e+01 -5.8672369939962832e-01  1.9390605982802398e+01 -9.4189563037537152e+00 -4.9761501762265492e-01  2.0104685379356766e+01 -7.9067385632529144e+00 -4.3960818579074845e-01  2.0776209711002050e+01 -6.3587194759951142e+00 -4.1435621992500882e-01  -2.9373928964918004e+01 -3.1070712368127598e+01 -1.7345766792006436e+00  -2.5346058678842944e+01 -3.0048989728710634e+01 -1.7773390378379705e+00  -2.1346451490383703e+01 -2.9051471777915683e+01 -1.7933220297805357e+00  -1.7439464487315607e+01 -2.8045084573941850e+01 -1.7819560421983045e+00  -1.3668503019199079e+01 -2.7005954118156847e+01 -1.7494707436934258e+00  -1.0060941954205223e+01 -2.5919623094808049e+01 -1.7020893390508007e+00  -6.6327845923960043e+00 -2.4779234640444400e+01 -1.6443937731365681e+00  -3.3934142652423942e+00 -2.3583312354243194e+01 -1.5788634443850744e+00  -3.4965387908556711e-01 -2.2333972729818676e+01 -1.5061290926814301e+00  2.4915158149194294e+00 -2.1035818582218869e+01 -1.4256287563452099e+00  5.1217718780393495e+00 -1.9695403753793730e+01 -1.3363908075970397e+00  7.5316363573270895e+00 -1.8321035159974620e+01 -1.2377341656458221e+00  9.7116173913171817e+00 -1.6922672163673933e+01 -1.1297489349365510e+00  1.1653779741601378e+01 -1.5511684371590484e+01 -1.0135440994528093e+00  1.3353411085821861e+01 -1.4100211415909067e+01 -8.9140583752793612e-01  1.4810900322384175e+01 -1.2699825719400252e+01 -7.6706982569758297e-01  1.6034379121751325e+01 -1.1319356559299791e+01 -6.4618199609665850e-01  1.7043457055017477e+01 -9.9616207443231577e+00 -5.3667753528346474e-01  1.7873940098587813e+01 -8.6200266810238393e+00 -4.4862661461315212e-01  1.8582653246151263e+01 -7.2749142828498998e+00 -3.9248996741892050e-01  1.9254494178426729e+01 -5.8920890042493239e+00 -3.6906656637650398e-01  -3.0361326070574044e+01 -2.6841841426114303e+01 -1.7199475572708585e+00  -2.6346265970390725e+01 -2.5967530850919221e+01 -1.7630667539609848e+00  -2.2355113892094817e+01 -2.5112653078921294e+01 -1.7792658162104036e+00  -1.8455443862129393e+01 -2.4252517362077771e+01 -1.7672753445737006e+00  -1.4693668381702818e+01 -2.3368027268140679e+01 -1.7331243067504503e+00  -1.1099202051659010e+01 -2.2446649748385887e+01 -1.6830297727232204e+00  -7.6889260387600702e+00 -2.1481748261347793e+01 -1.6217379976822710e+00  -4.4721047611233011e+00 -2.0471365994849894e+01 -1.5520324741024027e+00  -1.4547062894313729e+00 -1.9417008109797361e+01 -1.4749432377805582e+00  1.3576477104782194e+00 -1.8322667299167918e+01 -1.3903355870161167e+00  3.9582720598763368e+00 -1.7194125104816361e+01 -1.2975998196866216e+00  6.3393285322673174e+00 -1.6038470291020385e+01 -1.1962610428456202e+00  8.4926485928181012e+00 -1.4863745663068869e+01 -1.0864215423582386e+00  1.0411039730061923e+01 -1.3678588351065324e+01 -9.6905220889365384e-01  1.2089878196700766e+01 -1.2491673626326115e+01 -8.4625729860500254e-01  1.3529168248491024e+01 -1.1310664828568562e+01 -7.2164446013990324e-01  1.4736606727489651e+01 -1.0140680335591101e+01 -6.0082381644481031e-01  1.5731684913104210e+01 -8.9817700183339575e+00 -4.9173010173685611e-01  1.6550862040641238e+01 -7.8273860482651996e+00 -4.0446766128343553e-01  1.7252326608567511e+01 -6.6621233291744275e+00 -3.4939614113930834e-01  1.7922186618830814e+01 -5.4624266422548855e+00 -3.2673782102326565e-01  -3.1183262595020384e+01 -2.2593683176206916e+01 -1.7105592668868499e+00  -2.7178881301107541e+01 -2.1880249656569724e+01 -1.7534546440253662e+00  -2.3195005062967123e+01 -2.1180433697814632e+01 -1.7692069471753709e+00  -1.9301231242587185e+01 -2.0476326513228830e+01 -1.7560897547012302e+00  -1.5546222043333389e+01 -1.9753407504895470e+01 -1.7200276980757880e+00  -1.1961233356737280e+01 -1.9001651099138986e+01 -1.6672363144887765e+00  -8.5642559839071239e+00 -1.8215385897020553e+01 -1.6025686571436693e+00  -5.3648782233678833e+00 -1.7392666946073110e+01 -1.5290289143348315e+00  -2.3687004563034839e+00 -1.6534491863362852e+01 -1.4479605548980208e+00  4.1956726675652595e-01 -1.5644037957035993e+01 -1.3595822248450560e+00  2.9945072012981830e+00 -1.4725994139957459e+01 -1.2635976283134602e+00  5.3496575313339578e+00 -1.3786011727032944e+01 -1.1597252113825605e+00  7.4780560499582904e+00 -1.2830265659366093e+01 -1.0481010776025070e+00  9.3733170728144781e+00 -1.1865059296432142e+01 -9.2959655281110254e-01  1.1031147357271609e+01 -1.0896377363316727e+01 -8.0617166050206213e-01  1.2451515056144357e+01 -9.9290926144036220e+00 -6.8132735372094522e-01  1.3642129432761577e+01 -8.9660590390283321e+00 -5.6062722872053239e-01  1.4622645564987018e+01 -8.0057959236086678e+00 -4.5186401993105946e-01  1.5430265800867748e+01 -7.0430645725009642e+00 -3.6507406553618854e-01  1.6124148677297161e+01 -6.0666638553113366e+00 -3.1043945332413464e-01  1.6790674072196659e+01 -5.0613115028690512e+00 -2.8778698364974936e-01  -3.1830667317676355e+01 -1.8332763289254302e+01 -1.7066353663529632e+00  -2.7835036906699845e+01 -1.7789725333080977e+01 -1.7489181501981992e+00  -2.3857548488884269e+01 -1.7254524957438296e+01 -1.7637979937042483e+00  -1.9969123115655321e+01 -1.6714619587257459e+01 -1.7492386765435524e+00  -1.6220029982805407e+01 -1.6159554582171129e+01 -1.7111342171255666e+00  -1.2642980800613106e+01 -1.5581905741803626e+01 -1.6557271989061688e+00  -9.2569824605538713e+00 -1.4977305688951066e+01 -1.5879580336899131e+00  -6.0720753609709659e+00 -1.4344122261419562e+01 -1.5109929669772264e+00  -3.0937459257834599e+00 -1.3682971858061686e+01 -1.4264056505180425e+00  -3.2609643642448966e-01 -1.2996173254628681e+01 -1.3346775387285037e+00  2.2264230379782162e+00 -1.2287206787166767e+01 -1.2357482219734295e+00  4.5584822684600139e+00 -1.1560225817133075e+01 -1.1294837808050262e+00  6.6641891085310059e+00 -1.0819643986446183e+01 -1.0160490888546667e+00  8.5379735112866726e+00 -1.0069776347903646e+01 -8.9624495205060073e-01  1.0176083839820034e+01 -9.3144617384085109e+00 -7.7192551282080901e-01  1.1578619727370400e+01 -8.5565717870050264e+00 -6.4654342482583782e-01  1.2753481950991349e+01 -7.7978648184186330e+00 -5.2577478172321346e-01  1.3720372619171009e+01 -7.0359471580908499e+00 -4.1711517811281218e-01  1.4517196586302752e+01 -6.2679485781510316e+00 -3.3047887790641745e-01  1.5203743973012752e+01 -5.4863230329981993e+00 -2.7580207493801179e-01  1.5866108553968315e+01 -4.6819189584470573e+00 -2.5263782283656100e-01  -3.2297335559954284e+01 -1.4064115891822389e+01 -1.7081831332551620e+00  -2.8308880374519028e+01 -1.3698154021429163e+01 -1.7495950343008377e+00  -2.4337127983056362e+01 -1.3334555564423662e+01 -1.7633298501503831e+00  -2.0453951724880508e+01 -1.2965145682371357e+01 -1.7471421080206673e+00  -1.6710742842481515e+01 -1.2583027159403413e+01 -1.7069462366255315e+00  -1.3141263085025647e+01 -1.2183260090331212e+01 -1.6490412022592416e+00  -9.7652969600548953e+00 -1.1762877474178529e+01 -1.5784533965588474e+00  -6.5932739988460334e+00 -1.1320706716502897e+01 -1.4984764589268125e+00  -3.6306443341210022e+00 -1.0857084675299246e+01 -1.4108526574034657e+00  -8.8107412309125455e-01 -1.0373511121323578e+01 -1.3162511892319113e+00  1.6517371913316481e+00 -9.8722774647946707e+00 -1.2147760801019418e+00  3.9633815788553886e+00 -9.3561085135325222e+00 -1.1063864346066214e+00  6.0488846959573870e+00 -8.8278411308529208e+00 -9.9123875684040330e-01  7.9034363170893567e+00 -8.2901308497769328e+00 -8.7003781076314901e-01  9.5239153776679881e+00 -7.7450983338287172e+00 -7.4453167354528327e-01  1.0910880910982460e+01 -7.1938337729626314e+00 -6.1795386423908871e-01  1.2072398865141396e+01 -6.6375534544086028e+00 -4.9660002775938034e-01  1.3027242615784496e+01 -6.0732703287999295e+00 -3.8757244905435850e-01  1.3814252629221798e+01 -5.5018934181585397e+00 -3.0076840993638809e-01  1.4493838833065071e+01 -4.9185899263652333e+00 -2.4567965977121287e-01  1.5151523453278525e+01 -4.3186229528166296e+00 -2.2164724174156741e-01  -3.2578731216599706e+01 -9.7919347490682966e+00 -1.7150660650242047e+00  -2.8596309333067065e+01 -9.6075893288006249e+00 -1.7554166315544266e+00  -2.4629902111196127e+01 -9.4203719183848804e+00 -1.7678063559519779e+00  -2.0752148539792355e+01 -9.2259019183138751e+00 -1.7498595079456440e+00  -1.7015213238252052e+01 -9.0204673881681572e+00 -1.7075419947055428e+00  -1.3453546841693745e+01 -8.8014434673121649e+00 -1.6472298098724640e+00  -1.0087434300915293e+01 -8.5672303538690020e+00 -1.5740388689658913e+00  -6.9275436211362642e+00 -8.3171419174754817e+00 -1.4913719132999366e+00  -3.9792665440782344e+00 -8.0512704987221788e+00 -1.4011029588585473e+00  -1.2459177016702117e+00 -7.7703236285082600e+00 -1.3040450871971820e+00  1.2694007870859489e+00 -7.4754389548191025e+00 -1.2004330182322223e+00  3.5630336121047606e+00 -7.1679993480787232e+00 -1.0903095517399508e+00  5.6307962145979031e+00 -6.8494693938381488e+00 -9.7383356493642637e-01  7.4686015034300732e+00 -6.5212499184390902e+00 -8.5159982017425151e-01  9.0738314954801957e+00 -6.1844823528195239e+00 -7.2511581202438524e-01  1.0446993248657188e+01 -5.8398968650851444e+00 -5.9741377689526276e-01  1.1599762212893772e+01 -5.4847496718778865e+00 -4.7453707373177223e-01  1.2544593616176895e+01 -5.1174722118645972e+00 -3.6362932643828377e-01  1.3322384932866600e+01 -4.7439229714747686e+00 -2.7613271592738231e-01  1.3995210538890728e+01 -4.3608355440967461e+00 -2.2029345488169200e-01  1.4647877591105633e+01 -3.9666766501716730e+00 -1.9512237335964097e-01  -3.2671655121795148e+01 -5.5201989007600911e+00 -1.7271260370166763e+00  -2.8694491360965330e+01 -5.5202124297700044e+00 -1.7662438997216781e+00  -2.4733268925743879e+01 -5.5122587687152107e+00 -1.7771064307513402e+00  -2.0861279728688498e+01 -5.4955062660718959e+00 -1.7572730398923009e+00  -1.7131200502774732e+01 -5.4692328879022583e+00 -1.7127752461552357e+00  -1.3577861195423361e+01 -5.4329905972952526e+00 -1.6500735097768362e+00  -1.0221776682492749e+01 -5.3864579882781545e+00 -1.5743708272860226e+00  -7.0736744633159923e+00 -5.3293792267317048e+00 -1.4891620500959908e+00  -4.1388195285534710e+00 -5.2615621781387176e+00 -1.3964221500424903e+00  -1.4202131255980219e+00 -5.1828861472247487e+00 -1.2970715538983284e+00  1.0795142844217704e+00 -5.0932944604092807e+00 -1.1914488979337190e+00  3.3572752776221817e+00 -4.9927761129448616e+00 -1.0796857971284934e+00  5.4094704300306748e+00 -4.8813541398627134e+00 -9.6200934860562626e-01  7.2325843186309386e+00 -4.7590924929143243e+00 -8.3906598520083653e-01  8.8245896533759858e+00 -4.6261164412544593e+00 -7.1238695983516154e-01  1.0187483895777200e+01 -4.4826478041077378e+00 -5.8498689867934028e-01  1.1332979612507215e+01 -4.3294188968543805e+00 -4.6324440989931720e-01  1.2272266094562855e+01 -4.1659512321121923e+00 -3.4615452610397907e-01  1.3040801638678749e+01 -3.9924028312839677e+00 -2.5688040269064571e-01  1.3706899172123409e+01 -3.8104812190221580e+00 -1.9990169438456051e-01  1.4354422262809331e+01 -3.6221117435929155e+00 -1.7336272410101314e-01  -3.2574384054056594e+01 -1.2528984035398689e+00 -1.7443093869953372e+00  -2.8601849361040223e+01 -1.4383416345124882e+00 -1.7820217678089076e+00  -2.4645758447361818e+01 -1.6108252367214477e+00 -1.7911785607539636e+00  -2.0779943265544027e+01 -1.7730763359221511e+00 -1.7693271907054733e+00  -1.7057358117911924e+01 -1.9273461595064811e+00 -1.7225694607969186e+00  -1.3512931194870241e+01 -2.0752902473824846e+00 -1.6574478787137974e+00  -1.0167153472765088e+01 -2.2177623929772539e+00 -1.5792434128418293e+00  -7.0306304596523832e+00 -2.3548352090972906e+00 -1.4915233588130419e+00  -4.1084054553271061e+00 -2.4859528677325526e+00 -1.3963313046089538e+00  -1.4031483610532216e+00 -2.6101187812205344e+00 -1.2946507582653464e+00  1.0829488218260233e+00 -2.7260657406760989e+00 -1.1868700855675389e+00  3.3473146636848914e+00 -2.8324011069076378e+00 -1.0731445288808796e+00  5.3868829200038579e+00 -2.9277465300707046e+00 -9.5368371748085801e-01  7.1985931754809540e+00 -3.0108977513387289e+00 -8.2906010136161346e-01  8.7806049925922238e+00 -3.0810146876768818e+00 -7.0064702833376757e-01  1.0134505072431544e+01 -3.1379268487847281e+00 -5.7127651086708231e-01  1.1268399297268823e+01 -3.1822455232025635e+00 -4.4600265453859306e-01  1.2200519167664307e+01 -3.2195373376831835e+00 -3.3234182171258292e-01  1.2964164023788516e+01 -3.2467489784261727e+00 -2.4270593847488703e-01  1.3626177902174767e+01 -3.2653871459992323e+00 -1.8463586703687551e-01  1.4269122687757580e+01 -3.2818869210332915e+00 -1.5659283046808736e-01  -3.2286775607503998e+01 3.0061036157744461e+00 -1.7667097037373443e+00  -2.8318121977122047e+01 2.6358163985439043e+00 -1.8028445331046632e+00  -2.4367051806967375e+01 2.2834157427836743e+00 -1.8101284205038934e+00  -2.0507784501217401e+01 1.9423195265865936e+00 -1.7861413982378427e+00  -1.6793290367985339e+01 1.6071506702212959e+00 -1.7370605927976634e+00  -1.3258319668942462e+01 1.2741727974155577e+00 -1.6695065387294761e+00  -9.9231147242199462e+00 9.4148766320974453e-01 -1.5888300826573107e+00  -6.7980175299047758e+00 6.0885590614100027e-01 -1.4986585170409936e+00  -3.8877957244538686e+00 2.7733535612455251e-01 -1.4010873932631931e+00  -1.1948095556980827e+00 -5.1111427558570940e-02 -1.2971453457186064e+00  1.2791077705154201e+00 -3.7396566803071679e-01 -1.1872577170341743e+00  3.5317771460337513e+00 -6.8844831216122226e-01 -1.0716063004198337e+00  5.5604998894251931e+00 -9.9179480611585635e-01 -9.5041822289655964e-01  7.3624584301081883e+00 -1.2815525290412983e+00 -8.2428588844251693e-01  8.9358167306413900e+00 -1.5559364649068521e+00 -6.9463213744938590e-01  1.0281839186296295e+01 -1.8142623710902805e+00 -5.6438102929298117e-01  1.1408375154881881e+01 -2.0574317941526590e+00 -4.3872491374089245e-01  1.2334538372906531e+01 -2.2890919273402708e+00 -3.2547410844439317e-01  1.3096731913498589e+01 -2.5089329235623796e+00 -2.3488003637754812e-01  1.3755184721476313e+01 -2.7240752232990895e+00 -1.7497746808811993e-01  1.4393144515099120e+01 -2.9430871760970709e+00 -1.4513290230896092e-01  -3.1810111315644068e+01 7.2531865497660029e+00 -1.7945044343642083e+00  -2.7844297715900087e+01 6.7004030917228246e+00 -1.8288