<?xml version="1.0"?>
<VTKFile type="UnstructuredGrid"  version="0.1"  >
<UnstructuredGrid>
<Piece  NumberOfPoints="9261" NumberOfCells="48000">
<Points>
<DataArray  type="Float64"  NumberOfComponents="3"  format="ascii">0 0 0  0.015 0 0  0.03 0 0  0.045 0 0  0.06 0 0  0.075 0 0  0.09 0 0  0.105 0 0  0.12 0 0  0.135 0 0  0.15 0 0  0.165 0 0  0.18 0 0  0.195 0 0  0.21 0 0  0.225 0 0  0.24 0 0  0.255 0 0  0.27 0 0  0.285 0 0  0.3 0 0  0 0.015 0  0.015 0.015 0  0.03 0.015 0  0.045 0.015 0  0.06 0.015 0  0.075 0.015 0  0.09 0.015 0  0.105 0.015 0  0.12 0.015 0  0.135 0.015 0  0.15 0.015 0  0.165 0.015 0  0.18 0.015 0  0.195 0.015 0  0.21 0.015 0  0.225 0.015 0  0.24 0.015 0  0.255 0.015 0  0.27 0.015 0  0.285 0.015 0  0.3 0.015 0  0 0.03 0  0.015 0.03 0  0.03 0.03 0  0.045 0.03 0  0.06 0.03 0  0.075 0.03 0  0.09 0.03 0  0.105 0.03 0  0.12 0.03 0  0.135 0.03 0  0.15 0.03 0  0.165 0.03 0  0.18 0.03 0  0.195 0.03 0  0.21 0.03 0  0.225 0.03 0  0.24 0.03 0  0.255 0.03 0  0.27 0.03 0  0.285 0.03 0  0.3 0.03 0  0 0.045 0  0.015 0.045 0  0.03 0.045 0  0.045 0.045 0  0.06 0.045 0  0.075 0.045 0  0.09 0.045 0  0.105 0.045 0  0.12 0.045 0  0.135 0.045 0  0.15 0.045 0  0.165 0.045 0  0.18 0.045 0  0.195 0.045 0  0.21 0.045 0  0.225 0.045 0  0.24 0.045 0  0.255 0.045 0  0.27 0.045 0  0.285 0.045 0  0.3 0.045 0  0 0.06 0  0.015 0.06 0  0.03 0.06 0  0.045 0.06 0  0.06 0.06 0  0.075 0.06 0  0.09 0.06 0  0.105 0.06 0  0.12 0.06 0  0.135 0.06 0  0.15 0.06 0  0.165 0.06 0  0.18 0.06 0  0.195 0.06 0  0.21 0.06 0  0.225 0.06 0  0.24 0.06 0  0.255 0.06 0  0.27 0.06 0  0.285 0.06 0  0.3 0.06 0  0 0.075 0  0.015 0.075 0  0.03 0.075 0  0.045 0.075 0  0.06 0.075 0  0.075 0.075 0  0.09 0.075 0  0.105 0.075 0  0.12 0.075 0  0.135 0.075 0  0.15 0.075 0  0.165 0.075 0  0.18 0.075 0  0.195 0.075 0  0.21 0.075 0  0.225 0.075 0  0.24 0.075 0  0.255 0.075 0  0.27 0.075 0  0.285 0.075 0  0.3 0.075 0  0 0.09 0  0.015 0.09 0  0.03 0.09 0  0.045 0.09 0  0.06 0.09 0  0.075 0.09 0  0.09 0.09 0  0.105 0.09 0  0.12 0.09 0  0.135 0.09 0  0.15 0.09 0  0.165 0.09 0  0.18 0.09 0  0.195 0.09 0  0.21 0.09 0  0.225 0.09 0  0.24 0.09 0  0.255 0.09 0  0.27 0.09 0  0.285 0.09 0  0.3 0.09 0  0 0.105 0  0.015 0.105 0  0.03 0.105 0  0.045 0.105 0  0.06 0.105 0  0.075 0.105 0  0.09 0.105 0  0.105 0.105 0  0.12 0.105 0  0.135 0.105 0  0.15 0.105 0  0.165 0.105 0  0.18 0.105 0  0.195 0.105 0  0.21 0.105 0  0.225 0.105 0  0.24 0.105 0  0.255 0.105 0  0.27 0.105 0  0.285 0.105 0  0.3 0.105 0  0 0.12 0  0.015 0.12 0  0.03 0.12 0  0.045 0.12 0  0.06 0.12 0  0.075 0.12 0  0.09 0.12 0  0.105 0.12 0  0.12 0.12 0  0.135 0.12 0  0.15 0.12 0  0.165 0.12 0  0.18 0.12 0  0.195 0.12 0  0.21 0.12 0  0.225 0.12 0  0.24 0.12 0  0.255 0.12 0  0.27 0.12 0  0.285 0.12 0  0.3 0.12 0  0 0.135 0  0.015 0.135 0  0.03 0.135 0  0.045 0.135 0  0.06 0.135 0  0.075 0.135 0  0.09 0.135 0  0.105 0.135 0  0.12 0.135 0  0.135 0.135 0  0.15 0.135 0  0.165 0.135 0  0.18 0.135 0  0.195 0.135 0  0.21 0.135 0  0.225 0.135 0  0.24 0.135 0  0.255 0.135 0  0.27 0.135 0  0.285 0.135 0  0.3 0.135 0  0 0.15 0  0.015 0.15 0  0.03 0.15 0  0.045 0.15 0  0.06 0.15 0  0.075 0.15 0  0.09 0.15 0  0.105 0.15 0  0.12 0.15 0  0.135 0.15 0  0.15 0.15 0  0.165 0.15 0  0.18 0.15 0  0.195 0.15 0  0.21 0.15 0  0.225 0.15 0  0.24 0.15 0  0.255 0.15 0  0.27 0.15 0  0.285 0.15 0  0.3 0.15 0  0 0.165 0  0.015 0.165 0  0.03 0.165 0  0.045 0.165 0  0.06 0.165 0  0.075 0.165 0  0.09 0.165 0  0.105 0.165 0  0.12 0.165 0  0.135 0.165 0  0.15 0.165 0  0.165 0.165 0  0.18 0.165 0  0.195 0.165 0  0.21 0.165 0  0.225 0.165 0  0.24 0.165 0  0.255 0.165 0  0.27 0.165 0  0.285 0.165 0  0.3 0.165 0  0 0.18 0  0.015 0.18 0  0.03 0.18 0  0.045 0.18 0  0.06 0.18 0  0.075 0.18 0  0.09 0.18 0  0.105 0.18 0  0.12 0.18 0  0.135 0.18 0  0.15 0.18 0  0.165 0.18 0  0.18 0.18 0  0.195 0.18 0  0.21 0.18 0  0.225 0.18 0  0.24 0.18 0  0.255 0.18 0  0.27 0.18 0  0.285 0.18 0  0.3 0.18 0  0 0.195 0  0.015 0.195 0  0.03 0.195 0  0.045 0.195 0  0.06 0.195 0  0.075 0.195 0  0.09 0.195 0  0.105 0.195 0  0.12 0.195 0  0.135 0.195 0  0.15 0.195 0  0.165 0.195 0  0.18 0.195 0  0.195 0.195 0  0.21 0.195 0  0.225 0.195 0  0.24 0.195 0  0.255 0.195 0  0.27 0.195 0  0.285 0.195 0  0.3 0.195 0  0 0.21 0  0.015 0.21 0  0.03 0.21 0  0.045 0.21 0  0.06 0.21 0  0.075 0.21 0  0.09 0.21 0  0.105 0.21 0  0.12 0.21 0  0.135 0.21 0  0.15 0.21 0  0.165 0.21 0  0.18 0.21 0  0.195 0.21 0  0.21 0.21 0  0.225 0.21 0  0.24 0.21 0  0.255 0.21 0  0.27 0.21 0  0.285 0.21 0  0.3 0.21 0  0 0.225 0  0.015 0.225 0  0.03 0.225 0  0.045 0.225 0  0.06 0.225 0  0.075 0.225 0  0.09 0.225 0  0.105 0.225 0  0.12 0.225 0  0.135 0.225 0  0.15 0.225 0  0.165 0.225 0  0.18 0.225 0  0.195 0.225 0  0.21 0.225 0  0.225 0.225 0  0.24 0.225 0  0.255 0.225 0  0.27 0.225 0  0.285 0.225 0  0.3 0.225 0  0 0.24 0  0.015 0.24 0  0.03 0.24 0  0.045 0.24 0  0.06 0.24 0  0.075 0.24 0  0.09 0.24 0  0.105 0.24 0  0.12 0.24 0  0.135 0.24 0  0.15 0.24 0  0.165 0.24 0  0.18 0.24 0  0.195 0.24 0  0.21 0.24 0  0.225 0.24 0  0.24 0.24 0  0.255 0.24 0  0.27 0.24 0  0.285 0.24 0  0.3 0.24 0  0 0.255 0  0.015 0.255 0  0.03 0.255 0  0.045 0.255 0  0.06 0.255 0  0.075 0.255 0  0.09 0.255 0  0.105 0.255 0  0.12 0.255 0  0.135 0.255 0  0.15 0.255 0  0.165 0.255 0  0.18 0.255 0  0.195 0.255 0  0.21 0.255 0  0.225 0.255 0  0.24 0.255 0  0.255 0.255 0  0.27 0.255 0  0.285 0.255 0  0.3 0.255 0  0 0.27 0  0.015 0.27 0  0.03 0.27 0  0.045 0.27 0  0.06 0.27 0  0.075 0.27 0  0.09 0.27 0  0.105 0.27 0  0.12 0.27 0  0.135 0.27 0  0.15 0.27 0  0.165 0.27 0  0.18 0.27 0  0.195 0.27 0  0.21 0.27 0  0.225 0.27 0  0.24 0.27 0  0.255 0.27 0  0.27 0.27 0  0.285 0.27 0  0.3 0.27 0  0 0.285 0  0.015 0.285 0  0.03 0.285 0  0.045 0.285 0  0.06 0.285 0  0.075 0.285 0  0.09 0.285 0  0.105 0.285 0  0.12 0.285 0  0.135 0.285 0  0.15 0.285 0  0.165 0.285 0  0.18 0.285 0  0.195 0.285 0  0.21 0.285 0  0.225 0.285 0  0.24 0.285 0  0.255 0.285 0  0.27 0.285 0  0.285 0.285 0  0.3 0.285 0  0 0.3 0  0.015 0.3 0  0.03 0.3 0  0.045 0.3 0  0.06 0.3 0  0.075 0.3 0  0.09 0.3 0  0.105 0.3 0  0.12 0.3 0  0.135 0.3 0  0.15 0.3 0  0.165 0.3 0  0.18 0.3 0  0.195 0.3 0  0.21 0.3 0  0.225 0.3 0  0.24 0.3 0  0.255 0.3 0  0.27 0.3 0  0.285 0.3 0  0.3 0.3 0  0 0 0.00075  0.015 0 0.00075  0.03 0 0.00075  0.045 0 0.00075  0.06 0 0.00075  0.075 0 0.00075  0.09 0 0.00075  0.105 0 0.00075  0.12 0 0.00075  0.135 0 0.00075  0.15 0 0.00075  0.165 0 0.00075  0.18 0 0.00075  0.195 0 0.00075  0.21 0 0.00075  0.225 0 0.00075  0.24 0 0.00075  0.255 0 0.00075  0.27 0 0.00075  0.285 0 0.00075  0.3 0 0.00075  0 0.015 0.00075  0.015 0.015 0.00075  0.03 0.015 0.00075  0.045 0.015 0.00075  0.06 0.015 0.00075  0.075 0.015 0.00075  0.09 0.015 0.00075  0.105 0.015 0.00075  0.12 0.015 0.00075  0.135 0.015 0.00075  0.15 0.015 0.00075  0.165 0.015 0.00075  0.18 0.015 0.00075  0.195 0.015 0.00075  0.21 0.015 0.00075  0.225 0.015 0.00075  0.24 0.015 0.00075  0.255 0.015 0.00075  0.27 0.015 0.00075  0.285 0.015 0.00075  0.3 0.015 0.00075  0 0.03 0.00075  0.015 0.03 0.00075  0.03 0.03 0.00075  0.045 0.03 0.00075  0.06 0.03 0.00075  0.075 0.03 0.00075  0.09 0.03 0.00075  0.105 0.03 0.00075  0.12 0.03 0.00075  0.135 0.03 0.00075  0.15 0.03 0.00075  0.165 0.03 0.00075  0.18 0.03 0.00075  0.195 0.03 0.00075  0.21 0.03 0.00075  0.225 0.03 0.00075  0.24 0.03 0.00075  0.255 0.03 0.00075  0.27 0.03 0.00075  0.285 0.03 0.00075  0.3 0.03 0.00075  0 0.045 0.00075  0.015 0.045 0.00075  0.03 0.045 0.00075  0.045 0.045 0.00075  0.06 0.045 0.00075  0.075 0.045 0.00075  0.09 0.045 0.00075  0.105 0.045 0.00075  0.12 0.045 0.00075  0.135 0.045 0.00075  0.15 0.045 0.00075  0.165 0.045 0.00075  0.18 0.045 0.00075  0.195 0.045 0.00075  0.21 0.045 0.00075  0.225 0.045 0.00075  0.24 0.045 0.00075  0.255 0.045 0.00075  0.27 0.045 0.00075  0.285 0.045 0.00075  0.3 0.045 0.00075  0 0.06 0.00075  0.015 0.06 0.00075  0.03 0.06 0.00075  0.045 0.06 0.00075  0.06 0.06 0.00075  0.075 0.06 0.00075  0.09 0.06 0.00075  0.105 0.06 0.00075  0.12 0.06 0.00075  0.135 0.06 0.00075  0.15 0.06 0.00075  0.165 0.06 0.00075  0.18 0.06 0.00075  0.195 0.06 0.00075  0.21 0.06 0.00075  0.225 0.06 0.00075  0.24 0.06 0.00075  0.255 0.06 0.00075  0.27 0.06 0.00075  0.285 0.06 0.00075  0.3 0.06 0.00075  0 0.075 0.00075  0.015 0.075 0.00075  0.03 0.075 0.00075  0.045 0.075 0.00075  0.06 0.075 0.00075  0.075 0.075 0.00075  0.09 0.075 0.00075  0.105 0.075 0.00075  0.12 0.075 0.00075  0.135 0.075 0.00075  0.15 0.075 0.00075  0.165 0.075 0.00075  0.18 0.075 0.00075  0.195 0.075 0.00075  0.21 0.075 0.00075  0.225 0.075 0.00075  0.24 0.075 0.00075  0.255 0.075 0.00075  0.27 0.075 0.00075  0.285 0.075 0.00075  0.3 0.075 0.00075  0 0.09 0.00075  0.015 0.09 0.00075  0.03 0.09 0.00075  0.045 0.09 0.00075  0.06 0.09 0.00075  0.075 0.09 0.00075  0.09 0.09 0.00075  0.105 0.09 0.00075  0.12 0.09 0.00075  0.135 0.09 0.00075  0.15 0.09 0.00075  0.165 0.09 0.00075  0.18 0.09 0.00075  0.195 0.09 0.00075  0.21 0.09 0.00075  0.225 0.09 0.00075  0.24 0.09 0.00075  0.255 0.09 0.00075  0.27 0.09 0.00075  0.285 0.09 0.00075  0.3 0.09 0.00075  0 0.105 0.00075  0.015 0.105 0.00075  0.03 0.105 0.00075  0.045 0.105 0.00075  0.06 0.105 0.00075  0.075 0.105 0.00075  0.09 0.105 0.00075  0.105 0.105 0.00075  0.12 0.105 0.00075  0.135 0.105 0.00075  0.15 0.105 0.00075  0.165 0.105 0.00075  0.18 0.105 0.00075  0.195 0.105 0.00075  0.21 0.105 0.00075  0.225 0.105 0.00075  0.24 0.105 0.00075  0.255 0.105 0.00075  0.27 0.105 0.00075  0.285 0.105 0.00075  0.3 0.105 0.00075  0 0.12 0.00075  0.015 0.12 0.00075  0.03 0.12 0.00075  0.045 0.12 0.00075  0.06 0.12 0.00075  0.075 0.12 0.00075  0.09 0.12 0.00075  0.105 0.12 0.00075  0.12 0.12 0.00075  0.135 0.12 0.00075  0.15 0.12 0.00075  0.165 0.12 0.00075  0.18 0.12 0.00075  0.195 0.12 0.00075  0.21 0.12 0.00075  0.225 0.12 0.00075  0.24 0.12 0.00075  0.255 0.12 0.00075  0.27 0.12 0.00075  0.285 0.12 0.00075  0.3 0.12 0.00075  0 0.135 0.00075  0.015 0.135 0.00075  0.03 0.135 0.00075  0.045 0.135 0.00075  0.06 0.135 0.00075  0.075 0.135 0.00075  0.09 0.1
[...]
<PointData  Vectors="f_205"> 
<DataArray  type="Float64"  Name="f_205"  NumberOfComponents="3" format="ascii">-2.4180180680364312e+01 -4.8718424681519615e+01 -1.8750614041728000e+00  -1.9958307367695340e+01 -4.7226357400746124e+01 -1.9037265921404845e+00  -1.5767752225060281e+01 -4.5665774059160050e+01 -1.9013082946646429e+00  -1.1672598447451021e+01 -4.4007461012464567e+01 -1.8790121742652197e+00  -7.7186067409402579e+00 -4.2257757903977271e+01 -1.8460151464662515e+00  -3.9288449219614732e+00 -4.0432878114747865e+01 -1.8080640419436864e+00  -3.0965198071652600e-01 -3.8544205349771950e+01 -1.7677914670997605e+00  3.1405584515348561e+00 -3.6592286097345145e+01 -1.7252231232955964e+00  6.4222930171384478e+00 -3.4566140092406144e+01 -1.6778832222185414e+00  9.5264039619336209e+00 -3.2447360298909018e+01 -1.6212532180141530e+00  1.2428932967866222e+01 -3.0219444376949539e+01 -1.5506523536738068e+00  1.5093963578946449e+01 -2.7879051702589237e+01 -1.4639830356224848e+00  1.7484520231449146e+01 -2.5441944847916290e+01 -1.3629712031857981e+00  1.9574198267478657e+01 -2.2939318403180938e+01 -1.2516258331218872e+00  2.1351908222914144e+01 -2.0408676084606931e+01 -1.1336819468480033e+00  2.2819617530861713e+01 -1.7887196386393153e+01 -1.0115482389227612e+00  2.3989184181891105e+01 -1.5411081411072431e+01 -8.8752719318129336e-01  2.4884536465011980e+01 -1.3017532040733171e+01 -7.6658129362487648e-01  2.5551207894501200e+01 -1.0741218593106547e+01 -6.5912631734423088e-01  2.6067723626481548e+01 -8.5961075702785070e+00 -5.8120455394775683e-01  2.6544239493166145e+01 -6.5453725331169066e+00 -5.4932871536705907e-01  -2.5687622680276185e+01 -4.4514033005945457e+01 -1.8483778254098029e+00  -2.1490862944917804e+01 -4.3080409077363541e+01 -1.8844804458376567e+00  -1.7347789014787988e+01 -4.1628987487913321e+01 -1.8860761239453883e+00  -1.3313751558957447e+01 -4.0113009685469223e+01 -1.8638827291056406e+00  -9.4241482100086635e+00 -3.8522964726150583e+01 -1.8287407807774383e+00  -5.6976487577898522e+00 -3.6864051672137073e+01 -1.7877517786997108e+00  -2.1418385254243284e+00 -3.5142289922242774e+01 -1.7442892296841348e+00  1.2407479823662149e+00 -3.3358097065937990e+01 -1.6987123546125080e+00  4.4469301374148626e+00 -3.1505111092724704e+01 -1.6487386557660602e+00  7.4674488549418214e+00 -2.9572890354514147e+01 -1.5899293882861925e+00  1.0283541408562625e+01 -2.7552708648198340e+01 -1.5173807545703528e+00  1.2868673799086967e+01 -2.5444208247574647e+01 -1.4284452633551166e+00  1.5195882521185235e+01 -2.3259259934536249e+01 -1.3243607162531992e+00  1.7245966158173601e+01 -2.1020665687696518e+01 -1.2091166687965968e+00  1.9011006320810178e+01 -1.8757275702065574e+01 -1.0868462705619126e+00  2.0492851725289860e+01 -1.6499442439445467e+01 -9.6043677139522787e-01  2.1700781171911373e+01 -1.4276945890337451e+01 -8.3255188238766697e-01  2.2652771910092678e+01 -1.2117547407758057e+01 -7.0842480109908668e-01  2.3382231638604264e+01 -1.0041109120872175e+01 -5.9872288716313082e-01  2.3948117231239461e+01 -8.0436882176224564e+00 -5.1951054697573829e-01  2.4444521924591800e+01 -6.0693257365564621e+00 -4.8233862553832757e-01  -2.7142554665040059e+01 -4.0276987751715069e+01 -1.8210415907780317e+00  -2.2962912525965855e+01 -3.8930832450512227e+01 -1.8609296318993978e+00  -1.8838637742161499e+01 -3.7591864185723161e+01 -1.8659268716331963e+00  -1.4833858079975869e+01 -3.6215959405286235e+01 -1.8435779286033578e+00  -1.0982756031328378e+01 -3.4784095043119912e+01 -1.8058891716651166e+00  -7.3012736983496991e+00 -3.3292136575116686e+01 -1.7610570344234189e+00  -3.7955650881427223e+00 -3.1740597818808880e+01 -1.7130387022645255e+00  -4.6818073329095378e-01 -3.0129032242994718e+01 -1.6624777070365664e+00  2.6774582251479151e+00 -2.8454508049223527e+01 -1.6074364156127043e+00  5.6332779038878673e+00 -2.6712926337212277e+01 -1.5440363834318551e+00  8.3841791196654185e+00 -2.4902019355546738e+01 -1.4679057936786624e+00  1.0909282220779653e+01 -2.3024418321213609e+01 -1.3764658072943710e+00  1.3187401482634293e+01 -2.1089484401099725e+01 -1.2704766001704284e+00  1.5203347578520297e+01 -1.9113135826024209e+01 -1.1533155210062667e+00  1.6950604966589101e+01 -1.7115967329261913e+01 -1.0288007740968750e+00  1.8429879796521632e+01 -1.5120739022510596e+01 -8.9990555660367544e-01  1.9647105593384417e+01 -1.3149916918589305e+01 -7.6969813269950360e-01  2.0615078981252598e+01 -1.1222408030520326e+01 -6.4408512521464545e-01  2.1360991048058185e+01 -9.3471065460753131e+00 -5.3465042611976232e-01  2.1938974430815247e+01 -7.5109415769882926e+00 -4.5834886861978430e-01  2.2445852770499975e+01 -5.6613734953536587e+00 -4.2501506070113793e-01  -2.8487448954031198e+01 -3.6002950455006449e+01 -1.7963970464188181e+00  -2.4321993028238065e+01 -3.4774765823132547e+01 -1.8382357356736496e+00  -2.0207964113944200e+01 -3.3562454754434199e+01 -1.8449636495309503e+00  -1.6217417868620789e+01 -3.2329895955680087e+01 -1.8223590598593398e+00  -1.2388176640446057e+01 -3.1056418643177953e+01 -1.7823478792251468e+00  -8.7363148877618926e+00 -2.9732803408861550e+01 -1.7336042303213475e+00  -5.2671046148269127e+00 -2.8355673017467321e+01 -1.6804657343084708e+00  -1.9823715412523586e+00 -2.6923568244389468e+01 -1.6239016478981954e+00  1.1151225953033370e+00 -2.5435495198268043e+01 -1.5625203020268570e+00  4.0187566206545897e+00 -2.3891201707468213e+01 -1.4933575573094016e+00  6.7164923091364441e+00 -2.2292371987924906e+01 -1.4130505245171932e+00  9.1918601152728048e+00 -2.0643460738312204e+01 -1.3194885158865430e+00  1.1427950640682385e+01 -1.8952177169806674e+01 -1.2129943665322036e+00  1.3412118619369265e+01 -1.7229640655046229e+01 -1.0959578487589425e+00  1.5138090076383698e+01 -1.5490011720080295e+01 -9.7136694109487698e-01  1.6604936596044777e+01 -1.3749294813007817e+01 -8.4192854329620270e-01  1.7815834798898951e+01 -1.2023133622632695e+01 -7.1097118834986239e-01  1.8780517022470224e+01 -1.0323256418279179e+01 -5.8497098792850422e-01  1.9523891132269689e+01 -8.6518744590049934e+00 -4.7618575179477168e-01  2.0100139649935237e+01 -6.9938044602131759e+00 -4.0208455113873109e-01  2.0609943006208585e+01 -5.3081895278165945e+00 -3.7146661350277926e-01  -2.9689444362595477e+01 -3.1698106208246806e+01 -1.7759180867379554e+00  -2.5535988322371654e+01 -3.0611611585319352e+01 -1.8184979696196366e+00  -2.1429360038465195e+01 -2.9541521477114358e+01 -1.8256361373715400e+00  -1.7446992104879143e+01 -2.8460026888138838e+01 -1.8021620571079378e+00  -1.3630662661494602e+01 -2.7348464704851732e+01 -1.7597923158139415e+00  -9.9981820438966942e+00 -2.6196226371350122e+01 -1.7072803189965784e+00  -6.5550729323329984e+00 -2.4998067977210372e+01 -1.6491528166999470e+00  -3.3028559790779344e+00 -2.3751837632457494e+01 -1.5866744832124646e+00  -2.4367846746323671e-01 -2.2457384489689083e+01 -1.5190128935540099e+00  2.6171455762464699e+00 -2.1116192791267434e+01 -1.4441053917726105e+00  5.2701615080122659e+00 -1.9731719396932387e+01 -1.3596157640630504e+00  7.7025660767589068e+00 -1.8308988587501737e+01 -1.2640104674906070e+00  9.9009748402299209e+00 -1.6854403659390545e+01 -1.1573342512359752e+00  1.1854718832651105e+01 -1.5375912694239327e+01 -1.0410592354388046e+00  1.3557471821724857e+01 -1.3883170598547673e+01 -9.1726196714968899e-01  1.5006815839432395e+01 -1.2386978361792442e+01 -7.8822065547871922e-01  1.6203987057847456e+01 -1.0897531472211901e+01 -6.5735455040789759e-01  1.7157216153664514e+01 -9.4213903498160452e+00 -5.3152202842224194e-01  1.7891091448229130e+01 -7.9573045884598343e+00 -4.2339054354382366e-01  1.8461154101248084e+01 -6.4916196661584795e+00 -3.5060633901738503e-01  1.8970568736539775e+01 -4.9957282044719857e+00 -3.2127686533908734e-01  -3.0729024421687793e+01 -2.7370609571670766e+01 -1.7603297850742161e+00  -2.6585597750883416e+01 -2.6442844076403222e+01 -1.8028266955196937e+00  -2.2485157437934255e+01 -2.5528693329082049e+01 -1.8094628791127554e+00  -1.8508600060041466e+01 -2.4607349808676698e+01 -1.7845374054394636e+00  -1.4700881333250434e+01 -2.3663360918826640e+01 -1.7396523896721134e+00  -1.1081852019710610e+01 -2.2686788363354577e+01 -1.6835577162803195e+00  -7.6579606819298398e+00 -2.1672064142385416e+01 -1.6208803322867826e+00  -4.4309324445217051e+00 -2.0616794022345260e+01 -1.5531334984908955e+00  -1.4025556497198659e+00 -1.9521088684370891e+01 -1.4799607149358067e+00  1.4228871712747722e+00 -1.8386768587420139e+01 -1.3999955276157616e+00  4.0380584243712576e+00 -1.7217707408078457e+01 -1.3117108474017249e+00  6.4331357163280991e+00 -1.6018618931648970e+01 -1.2140601377007354e+00  8.5976170728708396e+00 -1.4794693459508087e+01 -1.1069468424569164e+00  1.0522514473731809e+01 -1.3551725819127753e+01 -9.9118414116185316e-01  1.2201583369692827e+01 -1.2296342300103330e+01 -8.6812268468781162e-01  1.3631407820002003e+01 -1.1035668812554134e+01 -7.3963102009659110e-01  1.4812056652702520e+01 -9.7760130447906040e+00 -6.0910284643136170e-01  1.5751183983260381e+01 -8.5206053819910519e+00 -4.8358746559625881e-01  1.6473794317329986e+01 -7.2668277923977262e+00 -3.7593116290068590e-01  1.7036724837184249e+01 -6.0039009347309324e+00 -3.0373971489634644e-01  1.7544163113865132e+01 -4.7132654341798252e+00 -2.7462933588789312e-01  -3.1594484728157241e+01 -2.3027470724456698e+01 -1.7501106686191115e+00  -2.7459153609510999e+01 -2.2270444515835145e+01 -1.7919740177253465e+00  -2.3364028661741862e+01 -2.1523418787033663e+01 -1.7975139467394090e+00  -1.9392293790271779e+01 -2.0770916953295099e+01 -1.7707123239402374e+00  -1.5591245037351060e+01 -2.0000768974581973e+01 -1.7231599037841314e+00  -1.1982506185888838e+01 -1.9204587934632627e+01 -1.6636316487502645e+00  -8.5735911333557837e+00 -1.8377338362910340e+01 -1.5968483888344145e+00  -5.3667084820489617e+00 -1.7516728619842191e+01 -1.5245508602346165e+00  -2.3634840192573652e+00 -1.6622950037367250e+01 -1.4467819967538091e+00  4.3251897738899142e-01 -1.5697316081519503e+01 -1.3626025570449796e+00  3.0156633657893761e+00 -1.4743599488596226e+01 -1.2710364417905518e+00  5.3784906720492733e+00 -1.3765728556350441e+01 -1.1713658147551691e+00  7.5127785821050681e+00 -1.2767690722243398e+01 -1.0634321305691232e+00  9.4109716233320118e+00 -1.1753689342048855e+01 -9.4764714835889863e-01  1.1067122883928636e+01 -1.0728283757865571e+01 -8.2488377365370447e-01  1.2477347665169612e+01 -9.6961155582467065e+00 -6.9670241565029301e-01  1.3641161447852463e+01 -8.6609473078141317e+00 -5.6641747244979546e-01  1.4566129811869803e+01 -7.6241209427466154e+00 -4.4112395521731718e-01  1.5277804763380662e+01 -6.5828970320963993e+00 -3.3367850213468014e-01  1.5833859701987329e+01 -5.5295434384661801e+00 -2.6152607028380243e-01  1.6338494349872303e+01 -4.4529182630149808e+00 -2.3192471414802865e-01  -3.2278506912748142e+01 -1.8673462595030387e+01 -1.7456664745426265e+00  -2.8149306140959691e+01 -1.8095882808225468e+01 -1.7865588657813538e+00  -2.4058588524398338e+01 -1.7524804143616763e+01 -1.7906659193917187e+00  -2.0091156372168630e+01 -1.6948690912987349e+01 -1.7617403960880222e+00  -1.6295949418559683e+01 -1.6358338354076189e+01 -1.7114230330365470e+00  -1.2695917698642887e+01 -1.5747166776228687e+01 -1.6485486451630011e+00  -9.2994088248267079e+00 -1.5110976143638373e+01 -1.5779357306734949e+00  -6.1091791917272831e+00 -1.4447697910953107e+01 -1.5015531678770639e+00  -3.1268153061253168e+00 -1.3757690072078514e+01 -1.4199148300256805e+00  -3.5555820672609789e-01 -1.3041178328034837e+01 -1.3322223516254843e+00  2.2003861017205226e+00 -1.2302098695347617e+01 -1.2378454739856877e+00  4.5354717349198168e+00 -1.1543315168650505e+01 -1.1362200103319267e+00  6.6432452000654685e+00 -1.0767579789492354e+01 -1.0271581108957710e+00  8.5173406412717512e+00 -9.9777965745577166e+00 -9.1085824003077620e-01  1.0152251924213189e+01 -9.1770413093452987e+00 -7.8791882498899324e-01  1.1544019388649810e+01 -8.3683006647502971e+00 -6.5969818122871005e-01  1.2692012071656919e+01 -7.5537926427751430e+00 -5.2941877868244580e-01  1.3603923580853285e+01 -6.7339857447512310e+00 -4.0413453475289768e-01  1.4305745263518599e+01 -5.9067025304011658e+00 -2.9661239764624275e-01  1.4855525523025378e+01 -5.0669660012783257e+00 -2.2408448096811387e-01  1.5356910588037316e+01 -4.2088711121133393e+00 -1.9354268668297692e-01  -3.2775541963215062e+01 -1.4311065510983301e+01 -1.7472001500406569e+00  -2.8650703309987868e+01 -1.3919649456058165e+01 -1.7869779326720598e+00  -2.4563575304676561e+01 -1.3531220795532661e+01 -1.7895605331377620e+00  -2.0600204092123558e+01 -1.3137526074075373e+01 -1.7585079509222945e+00  -1.6810618808703374e+01 -1.2732082951647751e+01 -1.7055215192389326e+00  -1.3218634963634663e+01 -1.2310172359069105e+01 -1.6394726636725543e+00  -9.8330983092345789e+00 -1.1868516264711417e+01 -1.5652453526762289e+00  -6.6569428564814537e+00 -1.1404953690187741e+01 -1.4848092640399710e+00  -3.6917951697396290e+00 -1.0919868975502689e+01 -1.3995755649600603e+00  -9.4162990708918681e-01 -1.0412075628299117e+01 -1.3086838049225653e+00  1.5909158381137607e+00 -9.8868270894732397e+00 -1.2118393252939477e+00  3.9020959923966982e+00 -9.3454955750883926e+00 -1.1083431962841606e+00  5.9868242596349805e+00 -8.7895040971064589e+00 -9.9795849516543056e-01  7.8396744548554356e+00 -8.2206167057254351e+00 -8.8078802787892130e-01  9.4556092105897260e+00 -7.6407826101594747e+00 -7.5729056532413042e-01  1.0830804606670066e+01 -7.0518837848609648e+00 -6.2870141198288920e-01  1.1964691011705192e+01 -6.4552781733877609e+00 -4.9815739092291450e-01  1.2865139222739481e+01 -5.8512206254843520e+00 -3.7263097459165406e-01  1.3558403164587233e+01 -5.2384415144453067e+00 -2.6475411586826536e-01  1.4102562195329480e+01 -4.6143347504179877e+00 -1.9153729264299388e-01  1.4600463114510344e+01 -3.9766987493152177e+00 -1.5977315878790402e-01  -3.3079847560172773e+01 -9.9418924847875285e+00 -1.7543673320090454e+00  -2.8958414783875732e+01 -9.7418893887674134e+00 -1.7930075169705642e+00  -2.4874602456474726e+01 -9.5406894364753079e+00 -1.7941039565228751e+00  -2.0915517170473425e+01 -9.3334150991572038e+00 -1.7611239309914417e+00  -1.7131861852533191e+01 -9.1162788607633729e+00 -1.7058725147027116e+00  -1.3547875569156094e+01 -8.8865701484391675e+00 -1.6372423395773086e+00  -1.0172703332325048e+01 -8.6423605349048032e+00 -1.5600214660804230e+00  -7.0097809886581706e+00 -8.3824207146525502e+00 -1.4761519797341023e+00  -4.0572297390757246e+00 -8.1033055699533065e+00 -1.3870069693864191e+00  -1.3250970244724316e+00 -7.8040863813566208e+00 -1.2920193254470229e+00  1.1866589411402273e+00 -7.4924625703418588e+00 -1.1927081147856842e+00  3.4770113660625119e+00 -7.1676710070307470e+00 -1.0873757327233311e+00  5.5418605732032189e+00 -6.8297797406838461e+00 -9.7554569510018252e-01  7.3763913902589469e+00 -6.4795601459246663e+00 -8.5726764406554745e-01  8.9759403698281819e+00 -6.1180773342042434e+00 -7.3293365341757100e-01  1.0336869172461114e+01 -5.7464675785442809e+00 -6.0370366079070481e-01  1.1458721929101033e+01 -5.3656699957785223e+00 -4.7263975428510746e-01  1.2349493631989862e+01 -4.9761304992999289e+00 -3.4662095172666535e-01  1.3035517929459200e+01 -4.5776565584957165e+00 -2.3813401858286215e-01  1.3574678395696081e+01 -4.1697077607431501e+00 -1.6398348938438964e-01  1.4068973840434731e+01 -3.7528467181906389e+00 -1.3081633204458804e-01  -3.3185369479504182e+01 -5.5693564021373634e+00 -1.7663849438504795e+00  -2.9067544641562133e+01 -5.5643225275985566e+00 -1.8037803322619272e+00  -2.4987540447153535e+01 -5.5530874993354598e+00 -1.8032455222981991e+00  -2.1033493131502595e+01 -5.5343609116461527e+00 -1.7683000224190926e+00  -1.7256648099573560e+01 -5.5069206261607606e+00 -1.7109341739686745e+00  -1.3681460218907636e+01 -5.4698111444774247e+00 -1.6402208751389542e+00  -1.0316979755565812e+01 -5.4221840121491081e+00 -1.5610983778193821e+00  -7.1653666520906993e+00 -5.3633177086658774e+00 -1.4756323671471110e+00  -4.2246283889270249e+00 -5.2930985031433524e+00 -1.3856999796486591e+00  -1.5056957586164315e+00 -5.2103292572365749e+00 -1.2827806890295490e+00  9.8672726410960754e-01 -5.1144843501045081e+00 -1.1803200556241185e+00  3.2588342695713295e+00 -5.0063492285095252e+00 -1.0730423371402205e+00  5.3068432171578719e+00 -4.8857487227774303e+00 -9.5966377853593354e-01  7.1260388859193498e+00 -4.7528162939247434e+00 -8.4011699119697836e-01  8.7119665118539160e+00 -4.6079426302424444e+00 -7.1474633686883815e-01  1.0061145162703991e+01 -4.4517468410268251e+00 -5.8465809890932063e-01  1.1173201321484036e+01 -4.2850114448977301e+00 -4.5284856304312304e-01  1.2056147255946259e+01 -4.1086072890396030e+00 -3.2610493120896072e-01  1.2736220302523087e+01 -3.9235146493027360e+00 -2.1677705465472200e-01  1.3270957775422755e+01 -3.7311013883512198e+00 -1.4149141922684916e-01  1.3761565122154243e+01 -3.5342459714887178e+00 -1.0679830793256925e-01  -3.3088281879781810e+01 -1.1994210603287652e+00 -1.7829174715179319e+00  -2.8974653841041583e+01 -1.3909071328503548e+00 -1.8187863572564344e+00  -2.4899089049197844e+01 -1.5713170389051847e+00 -1.8162475239339293e+00  -2.0950533608311261e+01 -1.7428744845049593e+00 -1.7789115469723145e+00  -1.7180605245731083e+01 -1.9069578165749139e+00 -1.7188620515590618e+00  -1.3613834386205646e+01 -2.0643439941601427e+00 -1.6452192371850931e+00  -1.0259328275991310e+01 -2.2151623104110714e+00 -1.5628782505222392e+00  -7.1196463352886319e+00 -2.3591376320036148e+00 -1.4738429270709950e+00  -4.1961216020795096e+00 -2.4957222971322843e+00 -1.3788042186280232e+00  -1.4920735961737217e+00 -2.6282746463572026e+00 -1.2779173077479764e+00  9.8647320399397742e-01 -2.7504555342269201e+00 -1.1740315393269116e+00  3.2452710488147667e+00 -2.8593876761863304e+00 -1.0650602591832889e+00  5.2802652102696852e+00 -2.9557188011551028e+00 -9.5011134001426101e-01  7.0873007298323429e+00 -3.0392583783787659e+00 -8.2918949654649898e-01  8.6624138944126940e+00 -3.1098225622431266e+00 -7.0263275580972540e-01  1.0002386925131086e+01 -3.1675978846921495e+00 -5.7150989609733627e-01  1.1106906047636567e+01 -3.2133142051352275e+00 -4.3875799826799627e-01  1.1983872992181404e+01 -3.2483746781703302e+00 -3.1107797817631960e-01  1.2659246398716204e+01 -3.2750067742032005e+00 -2.0069765714667226e-01  1.3190088341381598e+01 -3.2964982213823379e+00 -1.2409807483539277e-01  1.3676895578324947e+01 -3.3180081336843550e+00 -8.7784322609474053e-02  -3.2789400813599038e+01 3.1623507903429799e+00 -1.8045084205281450e+00  -2.8679945036297259e+01 2.7747636059095888e+00 -1.8385942287834025e+00  -2.4609353024868629e+01 2.4022851925196447e+00 -1.8338741767099689e+00  -2.0667068744054568e+01 2.0394174548960056e+00 -1.7940698290965804e+00  -1.6904931741038066e+01 1.6821327278950973e+00 -1.7313817946747359e+00  -1.3347503171618971e+01 1.3279339094797318e+00 -1.6550586722592480e+00  -1.0003921150307756e+01 9.7578842542355504e-01 -1.5701492292057728e+00  -6.8768802688331432e+00 6.2574881079757083e-01 -1.4788568378180329e+00  -3.9675192350666317e+00 2.7847190761637364e-01 -1.3821303181317250e+00  -1.2775309384262754e+00 -6.5899545038014984e-02 -1.2805473145332060e+00  1.1911503242447965e+00 -4.0101105210711280e-01 -1.1749168282616411e+00  3.4387179231437655e+00 -7.2582211230871063e-01 -1.0637248583532060e+00  5.4626595370824766e+00 -1.0386518523598514e+00 -9.4690846447661337e-01  7.2596742415008162e+00 -1.3382043815876929e+00 -8.2442650592324851e-01  8.8262138274777335e+00 -1.6234766711236623e+00 -6.9652876223433535e-01  1.0159222800514780e+01 -1.8941024620281726e+00 -5.6421302479090218e-01  1.1258314553390999e+01 -2.1506937736589342e+00 -4.3034372797768433e-01  1.2131084069995852e+01 -2.3951749636494979e+00 -3.0153320289812652e-01  1.2802976022050396e+01 -2.6310863152405819e+00 -1.8989917175529214e-01  1.3330403288790166e+01 -2.8638165609190311e+00 -1.1180965641777223e-01  1.3813201085838017e+01 -3.1011511586789391e+00 -7.3785226978860599e-02  -3.2291767065657552e+01 7.5129083798083398e+00 -1.8318093409464937e+00  -2.8185509765830378e+01 6.9312456098115129e+00 -1.8639