<?xml version="1.0"?>
<VTKFile type="UnstructuredGrid"  version="0.1"  >
<UnstructuredGrid>
<Piece  NumberOfPoints="9261" NumberOfCells="48000">
<Points>
<DataArray  type="Float64"  NumberOfComponents="3"  format="ascii">0 0 0  0.015 0 0  0.03 0 0  0.045 0 0  0.06 0 0  0.075 0 0  0.09 0 0  0.105 0 0  0.12 0 0  0.135 0 0  0.15 0 0  0.165 0 0  0.18 0 0  0.195 0 0  0.21 0 0  0.225 0 0  0.24 0 0  0.255 0 0  0.27 0 0  0.285 0 0  0.3 0 0  0 0.015 0  0.015 0.015 0  0.03 0.015 0  0.045 0.015 0  0.06 0.015 0  0.075 0.015 0  0.09 0.015 0  0.105 0.015 0  0.12 0.015 0  0.135 0.015 0  0.15 0.015 0  0.165 0.015 0  0.18 0.015 0  0.195 0.015 0  0.21 0.015 0  0.225 0.015 0  0.24 0.015 0  0.255 0.015 0  0.27 0.015 0  0.285 0.015 0  0.3 0.015 0  0 0.03 0  0.015 0.03 0  0.03 0.03 0  0.045 0.03 0  0.06 0.03 0  0.075 0.03 0  0.09 0.03 0  0.105 0.03 0  0.12 0.03 0  0.135 0.03 0  0.15 0.03 0  0.165 0.03 0  0.18 0.03 0  0.195 0.03 0  0.21 0.03 0  0.225 0.03 0  0.24 0.03 0  0.255 0.03 0  0.27 0.03 0  0.285 0.03 0  0.3 0.03 0  0 0.045 0  0.015 0.045 0  0.03 0.045 0  0.045 0.045 0  0.06 0.045 0  0.075 0.045 0  0.09 0.045 0  0.105 0.045 0  0.12 0.045 0  0.135 0.045 0  0.15 0.045 0  0.165 0.045 0  0.18 0.045 0  0.195 0.045 0  0.21 0.045 0  0.225 0.045 0  0.24 0.045 0  0.255 0.045 0  0.27 0.045 0  0.285 0.045 0  0.3 0.045 0  0 0.06 0  0.015 0.06 0  0.03 0.06 0  0.045 0.06 0  0.06 0.06 0  0.075 0.06 0  0.09 0.06 0  0.105 0.06 0  0.12 0.06 0  0.135 0.06 0  0.15 0.06 0  0.165 0.06 0  0.18 0.06 0  0.195 0.06 0  0.21 0.06 0  0.225 0.06 0  0.24 0.06 0  0.255 0.06 0  0.27 0.06 0  0.285 0.06 0  0.3 0.06 0  0 0.075 0  0.015 0.075 0  0.03 0.075 0  0.045 0.075 0  0.06 0.075 0  0.075 0.075 0  0.09 0.075 0  0.105 0.075 0  0.12 0.075 0  0.135 0.075 0  0.15 0.075 0  0.165 0.075 0  0.18 0.075 0  0.195 0.075 0  0.21 0.075 0  0.225 0.075 0  0.24 0.075 0  0.255 0.075 0  0.27 0.075 0  0.285 0.075 0  0.3 0.075 0  0 0.09 0  0.015 0.09 0  0.03 0.09 0  0.045 0.09 0  0.06 0.09 0  0.075 0.09 0  0.09 0.09 0  0.105 0.09 0  0.12 0.09 0  0.135 0.09 0  0.15 0.09 0  0.165 0.09 0  0.18 0.09 0  0.195 0.09 0  0.21 0.09 0  0.225 0.09 0  0.24 0.09 0  0.255 0.09 0  0.27 0.09 0  0.285 0.09 0  0.3 0.09 0  0 0.105 0  0.015 0.105 0  0.03 0.105 0  0.045 0.105 0  0.06 0.105 0  0.075 0.105 0  0.09 0.105 0  0.105 0.105 0  0.12 0.105 0  0.135 0.105 0  0.15 0.105 0  0.165 0.105 0  0.18 0.105 0  0.195 0.105 0  0.21 0.105 0  0.225 0.105 0  0.24 0.105 0  0.255 0.105 0  0.27 0.105 0  0.285 0.105 0  0.3 0.105 0  0 0.12 0  0.015 0.12 0  0.03 0.12 0  0.045 0.12 0  0.06 0.12 0  0.075 0.12 0  0.09 0.12 0  0.105 0.12 0  0.12 0.12 0  0.135 0.12 0  0.15 0.12 0  0.165 0.12 0  0.18 0.12 0  0.195 0.12 0  0.21 0.12 0  0.225 0.12 0  0.24 0.12 0  0.255 0.12 0  0.27 0.12 0  0.285 0.12 0  0.3 0.12 0  0 0.135 0  0.015 0.135 0  0.03 0.135 0  0.045 0.135 0  0.06 0.135 0  0.075 0.135 0  0.09 0.135 0  0.105 0.135 0  0.12 0.135 0  0.135 0.135 0  0.15 0.135 0  0.165 0.135 0  0.18 0.135 0  0.195 0.135 0  0.21 0.135 0  0.225 0.135 0  0.24 0.135 0  0.255 0.135 0  0.27 0.135 0  0.285 0.135 0  0.3 0.135 0  0 0.15 0  0.015 0.15 0  0.03 0.15 0  0.045 0.15 0  0.06 0.15 0  0.075 0.15 0  0.09 0.15 0  0.105 0.15 0  0.12 0.15 0  0.135 0.15 0  0.15 0.15 0  0.165 0.15 0  0.18 0.15 0  0.195 0.15 0  0.21 0.15 0  0.225 0.15 0  0.24 0.15 0  0.255 0.15 0  0.27 0.15 0  0.285 0.15 0  0.3 0.15 0  0 0.165 0  0.015 0.165 0  0.03 0.165 0  0.045 0.165 0  0.06 0.165 0  0.075 0.165 0  0.09 0.165 0  0.105 0.165 0  0.12 0.165 0  0.135 0.165 0  0.15 0.165 0  0.165 0.165 0  0.18 0.165 0  0.195 0.165 0  0.21 0.165 0  0.225 0.165 0  0.24 0.165 0  0.255 0.165 0  0.27 0.165 0  0.285 0.165 0  0.3 0.165 0  0 0.18 0  0.015 0.18 0  0.03 0.18 0  0.045 0.18 0  0.06 0.18 0  0.075 0.18 0  0.09 0.18 0  0.105 0.18 0  0.12 0.18 0  0.135 0.18 0  0.15 0.18 0  0.165 0.18 0  0.18 0.18 0  0.195 0.18 0  0.21 0.18 0  0.225 0.18 0  0.24 0.18 0  0.255 0.18 0  0.27 0.18 0  0.285 0.18 0  0.3 0.18 0  0 0.195 0  0.015 0.195 0  0.03 0.195 0  0.045 0.195 0  0.06 0.195 0  0.075 0.195 0  0.09 0.195 0  0.105 0.195 0  0.12 0.195 0  0.135 0.195 0  0.15 0.195 0  0.165 0.195 0  0.18 0.195 0  0.195 0.195 0  0.21 0.195 0  0.225 0.195 0  0.24 0.195 0  0.255 0.195 0  0.27 0.195 0  0.285 0.195 0  0.3 0.195 0  0 0.21 0  0.015 0.21 0  0.03 0.21 0  0.045 0.21 0  0.06 0.21 0  0.075 0.21 0  0.09 0.21 0  0.105 0.21 0  0.12 0.21 0  0.135 0.21 0  0.15 0.21 0  0.165 0.21 0  0.18 0.21 0  0.195 0.21 0  0.21 0.21 0  0.225 0.21 0  0.24 0.21 0  0.255 0.21 0  0.27 0.21 0  0.285 0.21 0  0.3 0.21 0  0 0.225 0  0.015 0.225 0  0.03 0.225 0  0.045 0.225 0  0.06 0.225 0  0.075 0.225 0  0.09 0.225 0  0.105 0.225 0  0.12 0.225 0  0.135 0.225 0  0.15 0.225 0  0.165 0.225 0  0.18 0.225 0  0.195 0.225 0  0.21 0.225 0  0.225 0.225 0  0.24 0.225 0  0.255 0.225 0  0.27 0.225 0  0.285 0.225 0  0.3 0.225 0  0 0.24 0  0.015 0.24 0  0.03 0.24 0  0.045 0.24 0  0.06 0.24 0  0.075 0.24 0  0.09 0.24 0  0.105 0.24 0  0.12 0.24 0  0.135 0.24 0  0.15 0.24 0  0.165 0.24 0  0.18 0.24 0  0.195 0.24 0  0.21 0.24 0  0.225 0.24 0  0.24 0.24 0  0.255 0.24 0  0.27 0.24 0  0.285 0.24 0  0.3 0.24 0  0 0.255 0  0.015 0.255 0  0.03 0.255 0  0.045 0.255 0  0.06 0.255 0  0.075 0.255 0  0.09 0.255 0  0.105 0.255 0  0.12 0.255 0  0.135 0.255 0  0.15 0.255 0  0.165 0.255 0  0.18 0.255 0  0.195 0.255 0  0.21 0.255 0  0.225 0.255 0  0.24 0.255 0  0.255 0.255 0  0.27 0.255 0  0.285 0.255 0  0.3 0.255 0  0 0.27 0  0.015 0.27 0  0.03 0.27 0  0.045 0.27 0  0.06 0.27 0  0.075 0.27 0  0.09 0.27 0  0.105 0.27 0  0.12 0.27 0  0.135 0.27 0  0.15 0.27 0  0.165 0.27 0  0.18 0.27 0  0.195 0.27 0  0.21 0.27 0  0.225 0.27 0  0.24 0.27 0  0.255 0.27 0  0.27 0.27 0  0.285 0.27 0  0.3 0.27 0  0 0.285 0  0.015 0.285 0  0.03 0.285 0  0.045 0.285 0  0.06 0.285 0  0.075 0.285 0  0.09 0.285 0  0.105 0.285 0  0.12 0.285 0  0.135 0.285 0  0.15 0.285 0  0.165 0.285 0  0.18 0.285 0  0.195 0.285 0  0.21 0.285 0  0.225 0.285 0  0.24 0.285 0  0.255 0.285 0  0.27 0.285 0  0.285 0.285 0  0.3 0.285 0  0 0.3 0  0.015 0.3 0  0.03 0.3 0  0.045 0.3 0  0.06 0.3 0  0.075 0.3 0  0.09 0.3 0  0.105 0.3 0  0.12 0.3 0  0.135 0.3 0  0.15 0.3 0  0.165 0.3 0  0.18 0.3 0  0.195 0.3 0  0.21 0.3 0  0.225 0.3 0  0.24 0.3 0  0.255 0.3 0  0.27 0.3 0  0.285 0.3 0  0.3 0.3 0  0 0 0.00075  0.015 0 0.00075  0.03 0 0.00075  0.045 0 0.00075  0.06 0 0.00075  0.075 0 0.00075  0.09 0 0.00075  0.105 0 0.00075  0.12 0 0.00075  0.135 0 0.00075  0.15 0 0.00075  0.165 0 0.00075  0.18 0 0.00075  0.195 0 0.00075  0.21 0 0.00075  0.225 0 0.00075  0.24 0 0.00075  0.255 0 0.00075  0.27 0 0.00075  0.285 0 0.00075  0.3 0 0.00075  0 0.015 0.00075  0.015 0.015 0.00075  0.03 0.015 0.00075  0.045 0.015 0.00075  0.06 0.015 0.00075  0.075 0.015 0.00075  0.09 0.015 0.00075  0.105 0.015 0.00075  0.12 0.015 0.00075  0.135 0.015 0.00075  0.15 0.015 0.00075  0.165 0.015 0.00075  0.18 0.015 0.00075  0.195 0.015 0.00075  0.21 0.015 0.00075  0.225 0.015 0.00075  0.24 0.015 0.00075  0.255 0.015 0.00075  0.27 0.015 0.00075  0.285 0.015 0.00075  0.3 0.015 0.00075  0 0.03 0.00075  0.015 0.03 0.00075  0.03 0.03 0.00075  0.045 0.03 0.00075  0.06 0.03 0.00075  0.075 0.03 0.00075  0.09 0.03 0.00075  0.105 0.03 0.00075  0.12 0.03 0.00075  0.135 0.03 0.00075  0.15 0.03 0.00075  0.165 0.03 0.00075  0.18 0.03 0.00075  0.195 0.03 0.00075  0.21 0.03 0.00075  0.225 0.03 0.00075  0.24 0.03 0.00075  0.255 0.03 0.00075  0.27 0.03 0.00075  0.285 0.03 0.00075  0.3 0.03 0.00075  0 0.045 0.00075  0.015 0.045 0.00075  0.03 0.045 0.00075  0.045 0.045 0.00075  0.06 0.045 0.00075  0.075 0.045 0.00075  0.09 0.045 0.00075  0.105 0.045 0.00075  0.12 0.045 0.00075  0.135 0.045 0.00075  0.15 0.045 0.00075  0.165 0.045 0.00075  0.18 0.045 0.00075  0.195 0.045 0.00075  0.21 0.045 0.00075  0.225 0.045 0.00075  0.24 0.045 0.00075  0.255 0.045 0.00075  0.27 0.045 0.00075  0.285 0.045 0.00075  0.3 0.045 0.00075  0 0.06 0.00075  0.015 0.06 0.00075  0.03 0.06 0.00075  0.045 0.06 0.00075  0.06 0.06 0.00075  0.075 0.06 0.00075  0.09 0.06 0.00075  0.105 0.06 0.00075  0.12 0.06 0.00075  0.135 0.06 0.00075  0.15 0.06 0.00075  0.165 0.06 0.00075  0.18 0.06 0.00075  0.195 0.06 0.00075  0.21 0.06 0.00075  0.225 0.06 0.00075  0.24 0.06 0.00075  0.255 0.06 0.00075  0.27 0.06 0.00075  0.285 0.06 0.00075  0.3 0.06 0.00075  0 0.075 0.00075  0.015 0.075 0.00075  0.03 0.075 0.00075  0.045 0.075 0.00075  0.06 0.075 0.00075  0.075 0.075 0.00075  0.09 0.075 0.00075  0.105 0.075 0.00075  0.12 0.075 0.00075  0.135 0.075 0.00075  0.15 0.075 0.00075  0.165 0.075 0.00075  0.18 0.075 0.00075  0.195 0.075 0.00075  0.21 0.075 0.00075  0.225 0.075 0.00075  0.24 0.075 0.00075  0.255 0.075 0.00075  0.27 0.075 0.00075  0.285 0.075 0.00075  0.3 0.075 0.00075  0 0.09 0.00075  0.015 0.09 0.00075  0.03 0.09 0.00075  0.045 0.09 0.00075  0.06 0.09 0.00075  0.075 0.09 0.00075  0.09 0.09 0.00075  0.105 0.09 0.00075  0.12 0.09 0.00075  0.135 0.09 0.00075  0.15 0.09 0.00075  0.165 0.09 0.00075  0.18 0.09 0.00075  0.195 0.09 0.00075  0.21 0.09 0.00075  0.225 0.09 0.00075  0.24 0.09 0.00075  0.255 0.09 0.00075  0.27 0.09 0.00075  0.285 0.09 0.00075  0.3 0.09 0.00075  0 0.105 0.00075  0.015 0.105 0.00075  0.03 0.105 0.00075  0.045 0.105 0.00075  0.06 0.105 0.00075  0.075 0.105 0.00075  0.09 0.105 0.00075  0.105 0.105 0.00075  0.12 0.105 0.00075  0.135 0.105 0.00075  0.15 0.105 0.00075  0.165 0.105 0.00075  0.18 0.105 0.00075  0.195 0.105 0.00075  0.21 0.105 0.00075  0.225 0.105 0.00075  0.24 0.105 0.00075  0.255 0.105 0.00075  0.27 0.105 0.00075  0.285 0.105 0.00075  0.3 0.105 0.00075  0 0.12 0.00075  0.015 0.12 0.00075  0.03 0.12 0.00075  0.045 0.12 0.00075  0.06 0.12 0.00075  0.075 0.12 0.00075  0.09 0.12 0.00075  0.105 0.12 0.00075  0.12 0.12 0.00075  0.135 0.12 0.00075  0.15 0.12 0.00075  0.165 0.12 0.00075  0.18 0.12 0.00075  0.195 0.12 0.00075  0.21 0.12 0.00075  0.225 0.12 0.00075  0.24 0.12 0.00075  0.255 0.12 0.00075  0.27 0.12 0.00075  0.285 0.12 0.00075  0.3 0.12 0.00075  0 0.135 0.00075  0.015 0.135 0.00075  0.03 0.135 0.00075  0.045 0.135 0.00075  0.06 0.135 0.00075  0.075 0.135 0.00075  0.09 0.1
[...]
<PointData  Vectors="f_205"> 
<DataArray  type="Float64"  Name="f_205"  NumberOfComponents="3" format="ascii">-2.4189287187737246e+01 -4.8590060675048200e+01 -1.8644846821885122e+00  -1.9984758996190031e+01 -4.7115508240654940e+01 -1.8941279110668698e+00  -1.5807144407533084e+01 -4.5576379476365851e+01 -1.8937132377549850e+00  -1.1717999786732276e+01 -4.3939924830425362e+01 -1.8734019162299840e+00  -7.7638797894517211e+00 -4.2208701924112248e+01 -1.8417984636288260e+00  -3.9703654176805583e+00 -4.0396847149122827e+01 -1.8045424113932855e+00  -3.4662472465990363e-01 -3.8515341771756496e+01 -1.7643011938756206e+00  3.1062235733593906e+00 -3.6565525058659873e+01 -1.7211275127824268e+00  6.3862871099256928e+00 -3.4538402118803837e+01 -1.6727368412417811e+00  9.4831240320697390e+00 -3.2418804220053019e+01 -1.6151825841540548e+00  1.2373674379307472e+01 -3.0193785431700022e+01 -1.5445385658067461e+00  1.5025014018468628e+01 -2.7862079534991242e+01 -1.4590333696300382e+00  1.7403367597428712e+01 -2.5439018555165120e+01 -1.3599734345495735e+00  1.9483777498533581e+01 -2.2953927425275054e+01 -1.2506363467119450e+00  2.1254723280671701e+01 -2.0443060943789519e+01 -1.1343617458021082e+00  2.2717359657447894e+01 -1.7944029306920136e+01 -1.0137295666230157e+00  2.3884012740965904e+01 -1.5494545047498166e+01 -8.9159599484109209e-01  2.4781042549797540e+01 -1.3132652611327090e+01 -7.7343186391060625e-01  2.5457256785563928e+01 -1.0891328086975523e+01 -6.6950981780788865e-01  2.5992219422394765e+01 -8.7801572223618454e+00 -5.9472621357305966e-01  2.6491865095369715e+01 -6.7586428845881565e+00 -5.6419176434911711e-01  -2.5680161930006651e+01 -4.4402244821994834e+01 -1.8366420900068756e+00  -2.1500373984593292e+01 -4.2983916485688013e+01 -1.8735684528270966e+00  -1.7370251646822322e+01 -4.1550362226690332e+01 -1.8772389459330063e+00  -1.3343505094810928e+01 -4.0052793881340293e+01 -1.8572721007209341e+00  -9.4563804476230917e+00 -3.8478926038526680e+01 -1.8237424175976868e+00  -5.7295057258024942e+00 -3.6832198703827906e+01 -1.7835735531609722e+00  -2.1724925653912144e+00 -3.5118205324365562e+01 -1.7402122548139753e+00  1.2102907976646335e+00 -3.3337996018551593e+01 -1.6940940682342209e+00  4.4140635186123829e+00 -3.1486681596327784e+01 -1.6431105085910702e+00  7.4286648370407731e+00 -2.9555959774066853e+01 -1.5833207236798319e+00  1.0235858163985181e+01 -2.7539338517637411e+01 -1.5105469033597894e+00  1.2811097613189816e+01 -2.5437952920617818e+01 -1.4225556125674059e+00  1.5129658660596476e+01 -2.3263895867940370e+01 -1.3202799036506643e+00  1.7173446557671948e+01 -2.1039332565455002e+01 -1.2069944429937083e+00  1.8934375548971325e+01 -1.8792616276372730e+01 -1.0863747183991204e+00  2.0413873636252823e+01 -1.6554363742408729e+01 -9.6143439152191668e-01  2.1621685833730478e+01 -1.4355090309215877e+01 -8.3540195822149743e-01  2.2577629389861642e+01 -1.2222744404445251e+01 -7.1407169901441692e-01  2.3317624676204652e+01 -1.0175785876189181e+01 -6.0803047367829732e-01  2.3901694771142608e+01 -8.2073855848087938e+00 -5.3219519515041791e-01  2.4421081785487637e+01 -6.2594987894604159e+00 -4.9666872235246184e-01  -2.7121922658042315e+01 -4.0181172355227233e+01 -1.8080291844563485e+00  -2.2959586371069303e+01 -3.8847836418887638e+01 -1.8487511353016695e+00  -1.8848971106706959e+01 -3.7523674971303748e+01 -1.8559505629613962e+00  -1.4852395504789675e+01 -3.6162979906630973e+01 -1.8360622810033123e+00  -1.1005016363301392e+01 -3.4744881348431200e+01 -1.8001916838943335e+00  -7.3247025130200800e+00 -3.3263965198917468e+01 -1.7563226577382891e+00  -3.8193448036984226e+00 -3.1720387436077811e+01 -1.7085471824989253e+00  -4.9283999128530265e-01 -3.0114156472730304e+01 -1.6576639125538006e+00  2.6503086291603690e+00 -2.8443346792451607e+01 -1.6019104320160820e+00  5.6014161040705410e+00 -2.6705164543252579e+01 -1.5377837813318307e+00  8.3457205034835571e+00 -2.4898560134244160e+01 -1.4614634908266551e+00  1.0863728458886916e+01 -2.3027106657498745e+01 -1.3707275672860089e+00  1.3135873206976266e+01 -2.1100690599768260e+01 -1.2661484915509547e+00  1.5147767735388681e+01 -1.9135425804016922e+01 -1.1505562238440705e+00  1.6892738336775963e+01 -1.7152035145354645e+01 -1.0274050806104489e+00  1.8371191059849494e+01 -1.5173526695619612e+01 -8.9981439300626831e-01  1.9589589316371622e+01 -1.3222595533576069e+01 -7.7141467623759508e-01  2.0562539852051728e+01 -1.1317885811551664e+01 -6.4866819428985167e-01  2.1319710481241238e+01 -9.4670882085880521e+00 -5.4305189183769542e-01  2.1916362726506144e+01 -7.6551854447005638e+00 -4.7029705347099604e-01  2.2446575406717464e+01 -5.8281365716831726e+00 -4.3868387839956652e-01  -2.8456604906286664e+01 -3.5922208508791492e+01 -1.7819968949822762e+00  -2.4308963449353215e+01 -3.4704475318001208e+01 -1.8247388547582186e+00  -2.0209214132205709e+01 -3.3504269401286578e+01 -1.8338131876537604e+00  -1.6227495234869995e+01 -3.2284174456304015e+01 -1.8138454051898247e+00  -1.2402585324168719e+01 -3.1022217387210571e+01 -1.7758199557192191e+00  -8.7525404258450408e+00 -2.9708296079536588e+01 -1.7281853985576747e+00  -5.2843017554295164e+00 -2.8338770504059287e+01 -1.6754637704034852e+00  -2.0007861281992767e+00 -2.6912491713267194e+01 -1.6188521366861830e+00  1.0945195299097774e+00 -2.5429115535749606e+01 -1.5571454332451813e+00  3.9946431398760494e+00 -2.3889194103630743e+01 -1.4876361135784397e+00  6.6877686386553883e+00 -2.2295012471121222e+01 -1.4072928811598773e+00  9.1583233942446451e+00 -2.0651629688500755e+01 -1.3142338302468162e+00  1.1390474423577718e+01 -1.8967354313645437e+01 -1.2086856138482029e+00  1.3372115122366356e+01 -1.7253850130829623e+01 -1.0927138631098479e+00  1.5096852506506567e+01 -1.5525693921495375e+01 -9.6911236204221851e-01  1.6563608060289742e+01 -1.3799128325427313e+01 -8.4077889384846505e-01  1.7776209834996955e+01 -1.2089775398378112e+01 -7.1157427856063338e-01  1.8746279531069188e+01 -1.0408908064621251e+01 -5.8848555856154638e-01  1.9501263488319967e+01 -8.7577147133759716e+00 -4.8362371788157776e-01  2.0096506265918816e+01 -7.1196037691569938e+00 -4.1319508311625119e-01  2.0629935956902692e+01 -5.4524519059451757e+00 -3.8438860922254930e-01  -2.9650650423915462e+01 -3.1631470290327190e+01 -1.7600827280875082e+00  -2.5515521224858979e+01 -3.0553375150600925e+01 -1.8036494298885868e+00  -2.1423632057460459e+01 -2.9493045373074509e+01 -1.8132723748263715e+00  -1.7450451355172021e+01 -2.8421643460623208e+01 -1.7925824104309802e+00  -1.3638704481160726e+01 -2.7319562856662252e+01 -1.7523291691606209e+00  -1.0008224441270791e+01 -2.6175575281059686e+01 -1.7010404131859689e+00  -6.5661993073632283e+00 -2.4984242712335757e+01 -1.6434596674007043e+00  -3.3151134861332863e+00 -2.3743618857670480e+01 -1.5811310377408849e+00  -2.5762368487274756e-01 -2.2453951363105912e+01 -1.5134268086749545e+00  2.6008096000303871e+00 -2.1117308556347950e+01 -1.4384738149470380e+00  5.2508630732366521e+00 -1.9737365383493028e+01 -1.3540928831755048e+00  7.6802490781372246e+00 -1.8319617474345133e+01 -1.2588628866083684e+00  9.8762208070137714e+00 -1.6871052349176317e+01 -1.1527809183040589e+00  1.1828431541465385e+01 -1.5400203266324457e+01 -1.0371686175834869e+00  1.3530496184352213e+01 -1.3917162222811333e+01 -9.1405977832115981e-01  1.4980020433293390e+01 -1.2432908886974637e+01 -7.8597038267924935e-01  1.6179034931119944e+01 -1.0957507889865191e+01 -6.5682299555309787e-01  1.7137745704667278e+01 -9.4970352180269799e+00 -5.3394000823201815e-01  1.7883327584896655e+01 -8.0493971315648896e+00 -4.2980753798328214e-01  1.8472497541329648e+01 -6.5998698485753939e+00 -3.6079269642456185e-01  1.9005678949851095e+01 -5.1187552970741867e+00 -3.3336891843966743e-01  -3.0683969853164758e+01 -2.7317206243223481e+01 -1.7430587483823381e+00  -2.6559322487105263e+01 -2.6396138245407332e+01 -1.7866250119764133e+00  -2.2473957145790326e+01 -2.5489736246024723e+01 -1.7958725417408707e+00  -1.8506776164828860e+01 -2.4576420009649553e+01 -1.7738597584000115e+00  -1.4703689766426109e+01 -2.3640063871052394e+01 -1.7311979563073849e+00  -1.1086605540913666e+01 -2.2670294526345600e+01 -1.6764073440372362e+00  -7.6636448285269116e+00 -2.1661389114153977e+01 -1.6143441844568738e+00  -4.4374312926769166e+00 -2.0611088390535532e+01 -1.5468289444471035e+00  -1.4101700854272086e+00 -1.9519706094041723e+01 -1.4737315644745468e+00  1.4138673895492946e+00 -1.8389667599004738e+01 -1.3938804958028461e+00  4.0273598215490987e+00 -1.7224666196624533e+01 -1.3057825458584578e+00  6.4207252860965962e+00 -1.6029926901960543e+01 -1.2084354324209312e+00  8.5838071579064756e+00 -1.4811199504749020e+01 -1.1017150404204545e+00  1.0507794131588845e+01 -1.3574769648105956e+01 -9.8638283642926061e-01  1.2186436967422095e+01 -1.2327594486810741e+01 -8.6383996346521807e-01  1.3616490700913925e+01 -1.1076890754428494e+01 -7.3622321162204940e-01  1.4798943388421497e+01 -9.8287911340013085e+00 -6.0740970949668849e-01  1.5743494279477204e+01 -8.5860864092926725e+00 -4.8488033774461808e-01  1.6477763927766112e+01 -7.3454846373388465e+00 -3.8127926050984001e-01  1.7059774475116026e+01 -6.0953837335185579e+00 -3.1293103020473267e-01  1.7591003222198690e+01 -4.8163182142634948e+00 -2.8581096772710035e-01  -3.1544427271977955e+01 -2.2986578847240239e+01 -1.7314176494513343e+00  -2.7428265716147088e+01 -2.2234849728632916e+01 -1.7744308139980591e+00  -2.3348485136065509e+01 -2.1493828476640576e+01 -1.7827031581426265e+00  -1.9386239540307734e+01 -2.0747523512139672e+01 -1.7589387501972393e+00  -1.5589791595526288e+01 -1.9983318279111344e+01 -1.7137125351798397e+00  -1.1982858073780969e+01 -1.9192545377858011e+01 -1.6555593536007720e+00  -8.5746345353285616e+00 -1.8370045832443260e+01 -1.5894201815054074e+00  -5.3681598036655762e+00 -1.7513610892090636e+01 -1.5173396856479306e+00  -2.3654928025343827e+00 -1.6623403979686483e+01 -1.4395966300023082e+00  4.2998296445291567e-01 -1.5701673124192915e+01 -1.3555745998878517e+00  3.0124323084472895e+00 -1.4751270825372638e+01 -1.2642081708829453e+00  5.3744409661223038e+00 -1.3776945032652963e+01 -1.1648055004364033e+00  7.5079917776136575e+00 -1.2783236633705677e+01 -1.0571795343154227e+00  9.4056384983112959e+00 -1.1774697473857499e+01 -9.4172977989640860e-01  1.1061473020205232e+01 -1.0756079309860077e+01 -8.1942210831480433e-01  1.2471883862404058e+01 -9.7320307432868294e+00 -6.9209845023746630e-01  1.3637394801969554e+01 -8.7061259678066190e+00 -5.6354467169735101e-01  1.4567665564221796e+01 -7.6793347397464142e+00 -4.4126963934853797e-01  1.5290881839617583e+01 -6.6483929807992226e+00 -3.3791931827184202e-01  1.5865911346097393e+01 -5.6049424289709266e+00 -2.6966372218638285e-01  1.6394282175429964e+01 -4.5371245091425561e+00 -2.4212192470555427e-01  -3.2224346034741160e+01 -1.8644579916611825e+01 -1.7255227603883174e+00  -2.8114701505214310e+01 -1.8071094187888047e+01 -1.7676452248271532e+00  -2.4039602650864683e+01 -1.7504431175469531e+01 -1.7746060347721031e+00  -2.0081779651911535e+01 -1.6932814124622144e+01 -1.7488563848260457e+00  -1.6291153322194653e+01 -1.6346798556085840e+01 -1.7009986710919518e+00  -1.2692804155773384e+01 -1.5739668059607464e+01 -1.6396102226560347e+00  -9.2968356621900377e+00 -1.5107202740949532e+01 -1.5697084708895217e+00  -6.1066551757195331e+00 -1.4447377696269106e+01 -1.4935129212215517e+00  -3.1243586045303551e+00 -1.3760075212635483e+01 -1.4116451626954145e+00  -3.5271050364310480e-01 -1.3047284990839961e+01 -1.3240550762202361e+00  2.2033522644199204e+00 -1.2310425151587181e+01 -1.2298183999747829e+00  4.5381969384677063e+00 -1.1554158394786045e+01 -1.1284497840507466e+00  6.6456069612894746e+00 -1.0781761154737085e+01 -1.0196864541505106e+00  8.5193330983255287e+00 -9.9962962445193870e+00 -9.0371007684561022e-01  1.0153945284690396e+01 -9.2008931714328206e+00 -7.8122581046581863e-01  1.1545819357410300e+01 -8.3984790214926708e+00 -6.5387818192803615e-01  1.2695386376536190e+01 -7.5910865019174913e+00 -5.2535493543972211e-01  1.3612462493957496e+01 -6.7788811998398666e+00 -4.0311557016841637e-01  1.4325680646968534e+01 -5.9592887904210468e+00 -2.9971502647233650e-01  1.4894291661671648e+01 -5.1268703316296227e+00 -2.3112066473729329e-01  1.5419308447750362e+01 -4.2751839662998297e+00 -2.0269210032447310e-01  -3.2717925950391695e+01 -1.4294126286615665e+01 -1.7254958625535375e+00  -2.8613102921114884e+01 -1.3905631150114964e+01 -1.7665679790143298e+00  -2.4541929916588071e+01 -1.3520064430451928e+01 -1.7721001944463184e+00  -2.0588345582051204e+01 -1.3129162360720503e+01 -1.7443521821360453e+00  -1.6803382837838402e+01 -1.2726369731250450e+01 -1.6939867140116900e+00  -1.3213028500921938e+01 -1.2306970989722716e+01 -1.6296193869102793e+00  -9.8280087031012791e+00 -1.1867851312463932e+01 -1.5562942196211782e+00  -6.6519269344028258e+00 -1.1407228285043766e+01 -1.4763330720705201e+00  -3.6866885252718045e+00 -1.0924309219211393e+01 -1.3904232838254400e+00  -9.3467260461687141e-01 -1.0420633536531390e+01 -1.2994654956680880e+00  1.5988614572848190e+00 -9.8958623578238516e+00 -1.2024717877126805e+00  3.9101008948793496e+00 -9.3557723367564876e+00 -1.0992142754577163e+00  5.9945818274972940e+00 -8.8020329985933348e+00 -9.8916788618944473e-01  7.8470820035841538e+00 -8.2362658609813231e+00 -8.7235445301791115e-01  9.4626670889893241e+00 -7.6603357419935794e+00 -7.4934117923522126e-01  1.0837875591838928e+01 -7.0760167065719184e+00 -6.2165384517728439e-01  1.1973221380545093e+01 -6.4844953036815163e+00 -4.9289250222053188e-01  1.2878705557753612e+01 -5.8857903187455607e+00 -3.7043163019105835e-01  1.3583220768600651e+01 -5.2783468025825488e+00 -2.6669293979833192e-01  1.4146052767855878e+01 -4.6592388089416632e+00 -1.9743355512785959e-01  1.4667449791067101e+01 -4.0258908503040773e+00 -1.6782324525389739e-01  -3.3019531760156994e+01 -9.9374513516785328e+00 -1.7310043131353350e+00  -2.8918593308453765e+01 -9.7390733072194440e+00 -1.7709576831670466e+00  -2.4851085393806304e+01 -9.5392245661713098e+00 -1.7750294791364634e+00  -2.0901983468888801e+01 -9.3330921315949649e+00 -1.7453866600318992e+00  -1.7123049195726132e+01 -9.1168798280276615e+00 -1.6928049591351844e+00  -1.3540773206315247e+01 -8.8878943283726013e+00 -1.6259732809098177e+00  -1.0166156264441010e+01 -8.6443247301860797e+00 -1.5499318918019100e+00  -7.0029170125338807e+00 -8.3850721923835714e+00 -1.4669177486147331e+00  -4.0532195044972275e+00 -8.1096909076908243e+00 -1.3776234624156607e+00  -1.3156467071231321e+00 -7.8154189371228275e+00 -1.2829394049263674e+00  1.1987495053770081e+00 -7.5018435935028531e+00 -1.1821684580760341e+00  3.4890089502362711e+00 -7.1769985574441293e+00 -1.0768531529438581e+00  5.5533719964871286e+00 -6.8403300848409030e+00 -9.6540003409189834e-01  7.3874024682550097e+00 -6.4920619644219917e+00 -8.4752739325495030e-01  8.9864980458712971e+00 -6.1330648302232023e+00 -7.2371583203345702e-01  1.0347352857353007e+01 -5.7643458103045617e+00 -5.9541965174082523e-01  1.1470578698461235e+01 -5.3866996329330057e+00 -4.6616359518263834e-01  1.2366286716948551e+01 -5.0004042108417330e+00 -3.4322656563355475e-01  1.3063434891753410e+01 -4.6050851048329511e+00 -2.3888761314026341e-01  1.3621111862814258e+01 -4.2000110736245810e+00 -1.6870923230882234e-01  1.4138749200651921e+01 -3.7855179333653388e+00 -1.3772647464681401e-01  -3.3123724200861794e+01 -5.5781769037754687e+00 -1.7414358242345469e+00  -2.9026675371467636e+01 -5.5733312378524040e+00 -1.7801367956439351e+00  -2.4963180559630043e+01 -5.5620414175772330e+00 -1.7825791025026989e+00  -2.1019181797713767e+01 -5.5430515438014574e+00 -1.7509495108588846e+00  -1.7247004104717902e+01 -5.5152031493646998e+00 -1.6961765338216162e+00  -1.3673449539238280e+01 -5.4776181273512137e+00 -1.6271027554005231e+00  -1.0309603030255115e+01 -5.4295301434409780e+00 -1.5489165307686124e+00  -7.1589702636824679e+00 -5.3702671807584261e+00 -1.4640000523488730e+00  -4.2222875743793367e+00 -5.2993292882580851e+00 -1.3731827365614495e+00  -1.4978362251144255e+00 -5.2168412615073247e+00 -1.2778719121103030e+00  1.0026336221251824e+00 -5.1218104512316298e+00 -1.1694141890865255e+00  3.2735345604331214e+00 -5.0138626540012927e+00 -1.0612542886722314e+00  5.3203265126273678e+00 -4.8939098702441877e+00 -9.4818191710012600e-01  7.1387678932391800e+00 -4.7619203914528008e+00 -8.2907000584276669e-01  8.7241669566050053e+00 -4.6181935791285982e+00 -7.0425601631552226e-01  1.0073247758721177e+01 -4.4632649308418308e+00 -5.7513155337408983e-01  1.1186654379979176e+01 -4.2978241296361555e+00 -4.4515235052906293e-01  1.2074487665887576e+01 -4.1226501276673391e+00 -3.2150298299628904e-01  1.2765589144072656e+01 -3.9386444304682411e+00 -2.1632792485070843e-01  1.3318697414651691e+01 -3.7471086325215013e+00 -1.4502239056312438e-01  1.3832480803170304e+01 -3.5508328298081171e+00 -1.1253670465066241e-01  -3.3027230262926366e+01 -1.2217339458137200e+00 -1.7565509865949889e+00  -2.8934397875511785e+01 -1.4119090444935425e+00 -1.7937475675921832e+00  -2.4875436430922743e+01 -1.5907686652676365e+00 -1.7942533197257742e+00  -2.0937047817704407e+01 -1.7605642547309313e+00 -1.7603226287158138e+00  -1.7171919009153168e+01 -1.9227945029164066e+00 -1.7029809639483227e+00  -1.3606919993133546e+01 -2.0783609531791680e+00 -1.6311423914288783e+00  -1.0253061790098434e+01 -2.2274798083419571e+00 -1.5500111191234549e+00  -7.1138248825861092e+00 -2.3698056975374966e+00 -1.4619123866883166e+00  -4.1902583601891390e+00 -2.5047527839940065e+00 -1.3676151051141829e+00  -1.4838547684297172e+00 -2.6316046408103961e+00 -1.2673447122127779e+00  1.0013684641637401e+00 -2.7536384592643666e+00 -1.1611205325201872e+00  3.2585885431257364e+00 -2.8644895867964850e+00 -1.0517768614224094e+00  5.2928328711930845e+00 -2.9613195097356164e+00 -9.3726990650655606e-01  7.0995074616394662e+00 -3.0449110650453055e+00 -8.1683982144376388e-01  8.6743344535133762e+00 -3.1153312102445243e+00 -6.9087488970922784e-01  1.0014354823272059e+01 -3.1727833998951120e+00 -5.6074185085475647e-01  1.1120303220967600e+01 -3.2179717072254155e+00 -4.2983798406250961e-01  1.2002172791049809e+01 -3.2522884942613981e+00 -3.0525991332147007e-01  1.2688516373797485e+01 -3.2779877395939403e+00 -1.9903221502691698e-01  1.3237596498201407e+01 -3.2984173473693192e+00 -1.2641465966996701e-01  1.3747403310616770e+01 -3.3187873533490722e+00 -9.2325157820047063e-02  -3.2730489457731231e+01 3.1267304743888826e+00 -1.7767565232098768e+00  -2.8641716420881476e+01 2.7419418806054336e+00 -1.8122104642345265e+00  -2.4587677958140031e+01 2.3727012074888276e+00 -1.8105940216393193e+00  -2.0655548320372311e+01 2.0133594356492153e+00 -1.7742534341283298e+00  -1.6898174024740239e+01 1.6596913651891749e+00 -1.7143160627921001e+00  -1.3342372937067381e+01 1.3090303271861665e+00 -1.6397977757903368e+00  -9.9990735038949516e+00 9.6025974335005360e-01 -1.5560050103018124e+00  -6.8717598333254264e+00 6.1348033595093743e-01 -1.4654000368881765e+00  -3.9615910645341454e+00 2.6955053298406301e-01 -1.3689465835095984e+00  -1.2698062692368728e+00 -7.0346072185383732e-02 -1.2671276986939151e+00  1.2012875242270247e+00 -4.0573536514403413e-01 -1.1603822883631265e+00  3.4490316014244211e+00 -7.3006991499057650e-01 -1.0494955552936474e+00  5.4729206146332157e+00 -1.0422476510161822e+00 -9.3298220196834047e-01  7.2698565898503533e+00 -1.3406935492583552e+00 -8.1089431855343952e-01  8.8362917114690536e+00 -1.6244448139859016e+00 -6.8355580073437860e-01  1.0169492003965276e+01 -1.8931250592930551e+00 -5.5222521989074536e-01  1.1270118108698904e+01 -2.1473476803381204e+00 -4.2020594574908132e-01  1.2147836148881952e+01 -2.3890938367072674e+00 -2.9449561822928766e-01  1.2830661650240632e+01 -2.6220347388029808e+00 -1.8700697308964592e-01  1.3376199944174319e+01 -2.8517525026973334e+00 -1.1289459277218732e-01  1.3881805589110844e+01 -3.0862329042553953e+00 -7.7105275381750493e-02  -3.2236056262095254e+01 7.4639496749723850e+00 -1.8025924916890104e+00  -2.8150399784050833e+01 6.8866005332206033e+00 -1.8361