<?xml version="1.0"?>
<VTKFile type="UnstructuredGrid"  version="0.1"  >
<UnstructuredGrid>
<Piece  NumberOfPoints="9261" NumberOfCells="48000">
<Points>
<DataArray  type="Float64"  NumberOfComponents="3"  format="ascii">0 0 0  0.015 0 0  0.03 0 0  0.045 0 0  0.06 0 0  0.075 0 0  0.09 0 0  0.105 0 0  0.12 0 0  0.135 0 0  0.15 0 0  0.165 0 0  0.18 0 0  0.195 0 0  0.21 0 0  0.225 0 0  0.24 0 0  0.255 0 0  0.27 0 0  0.285 0 0  0.3 0 0  0 0.015 0  0.015 0.015 0  0.03 0.015 0  0.045 0.015 0  0.06 0.015 0  0.075 0.015 0  0.09 0.015 0  0.105 0.015 0  0.12 0.015 0  0.135 0.015 0  0.15 0.015 0  0.165 0.015 0  0.18 0.015 0  0.195 0.015 0  0.21 0.015 0  0.225 0.015 0  0.24 0.015 0  0.255 0.015 0  0.27 0.015 0  0.285 0.015 0  0.3 0.015 0  0 0.03 0  0.015 0.03 0  0.03 0.03 0  0.045 0.03 0  0.06 0.03 0  0.075 0.03 0  0.09 0.03 0  0.105 0.03 0  0.12 0.03 0  0.135 0.03 0  0.15 0.03 0  0.165 0.03 0  0.18 0.03 0  0.195 0.03 0  0.21 0.03 0  0.225 0.03 0  0.24 0.03 0  0.255 0.03 0  0.27 0.03 0  0.285 0.03 0  0.3 0.03 0  0 0.045 0  0.015 0.045 0  0.03 0.045 0  0.045 0.045 0  0.06 0.045 0  0.075 0.045 0  0.09 0.045 0  0.105 0.045 0  0.12 0.045 0  0.135 0.045 0  0.15 0.045 0  0.165 0.045 0  0.18 0.045 0  0.195 0.045 0  0.21 0.045 0  0.225 0.045 0  0.24 0.045 0  0.255 0.045 0  0.27 0.045 0  0.285 0.045 0  0.3 0.045 0  0 0.06 0  0.015 0.06 0  0.03 0.06 0  0.045 0.06 0  0.06 0.06 0  0.075 0.06 0  0.09 0.06 0  0.105 0.06 0  0.12 0.06 0  0.135 0.06 0  0.15 0.06 0  0.165 0.06 0  0.18 0.06 0  0.195 0.06 0  0.21 0.06 0  0.225 0.06 0  0.24 0.06 0  0.255 0.06 0  0.27 0.06 0  0.285 0.06 0  0.3 0.06 0  0 0.075 0  0.015 0.075 0  0.03 0.075 0  0.045 0.075 0  0.06 0.075 0  0.075 0.075 0  0.09 0.075 0  0.105 0.075 0  0.12 0.075 0  0.135 0.075 0  0.15 0.075 0  0.165 0.075 0  0.18 0.075 0  0.195 0.075 0  0.21 0.075 0  0.225 0.075 0  0.24 0.075 0  0.255 0.075 0  0.27 0.075 0  0.285 0.075 0  0.3 0.075 0  0 0.09 0  0.015 0.09 0  0.03 0.09 0  0.045 0.09 0  0.06 0.09 0  0.075 0.09 0  0.09 0.09 0  0.105 0.09 0  0.12 0.09 0  0.135 0.09 0  0.15 0.09 0  0.165 0.09 0  0.18 0.09 0  0.195 0.09 0  0.21 0.09 0  0.225 0.09 0  0.24 0.09 0  0.255 0.09 0  0.27 0.09 0  0.285 0.09 0  0.3 0.09 0  0 0.105 0  0.015 0.105 0  0.03 0.105 0  0.045 0.105 0  0.06 0.105 0  0.075 0.105 0  0.09 0.105 0  0.105 0.105 0  0.12 0.105 0  0.135 0.105 0  0.15 0.105 0  0.165 0.105 0  0.18 0.105 0  0.195 0.105 0  0.21 0.105 0  0.225 0.105 0  0.24 0.105 0  0.255 0.105 0  0.27 0.105 0  0.285 0.105 0  0.3 0.105 0  0 0.12 0  0.015 0.12 0  0.03 0.12 0  0.045 0.12 0  0.06 0.12 0  0.075 0.12 0  0.09 0.12 0  0.105 0.12 0  0.12 0.12 0  0.135 0.12 0  0.15 0.12 0  0.165 0.12 0  0.18 0.12 0  0.195 0.12 0  0.21 0.12 0  0.225 0.12 0  0.24 0.12 0  0.255 0.12 0  0.27 0.12 0  0.285 0.12 0  0.3 0.12 0  0 0.135 0  0.015 0.135 0  0.03 0.135 0  0.045 0.135 0  0.06 0.135 0  0.075 0.135 0  0.09 0.135 0  0.105 0.135 0  0.12 0.135 0  0.135 0.135 0  0.15 0.135 0  0.165 0.135 0  0.18 0.135 0  0.195 0.135 0  0.21 0.135 0  0.225 0.135 0  0.24 0.135 0  0.255 0.135 0  0.27 0.135 0  0.285 0.135 0  0.3 0.135 0  0 0.15 0  0.015 0.15 0  0.03 0.15 0  0.045 0.15 0  0.06 0.15 0  0.075 0.15 0  0.09 0.15 0  0.105 0.15 0  0.12 0.15 0  0.135 0.15 0  0.15 0.15 0  0.165 0.15 0  0.18 0.15 0  0.195 0.15 0  0.21 0.15 0  0.225 0.15 0  0.24 0.15 0  0.255 0.15 0  0.27 0.15 0  0.285 0.15 0  0.3 0.15 0  0 0.165 0  0.015 0.165 0  0.03 0.165 0  0.045 0.165 0  0.06 0.165 0  0.075 0.165 0  0.09 0.165 0  0.105 0.165 0  0.12 0.165 0  0.135 0.165 0  0.15 0.165 0  0.165 0.165 0  0.18 0.165 0  0.195 0.165 0  0.21 0.165 0  0.225 0.165 0  0.24 0.165 0  0.255 0.165 0  0.27 0.165 0  0.285 0.165 0  0.3 0.165 0  0 0.18 0  0.015 0.18 0  0.03 0.18 0  0.045 0.18 0  0.06 0.18 0  0.075 0.18 0  0.09 0.18 0  0.105 0.18 0  0.12 0.18 0  0.135 0.18 0  0.15 0.18 0  0.165 0.18 0  0.18 0.18 0  0.195 0.18 0  0.21 0.18 0  0.225 0.18 0  0.24 0.18 0  0.255 0.18 0  0.27 0.18 0  0.285 0.18 0  0.3 0.18 0  0 0.195 0  0.015 0.195 0  0.03 0.195 0  0.045 0.195 0  0.06 0.195 0  0.075 0.195 0  0.09 0.195 0  0.105 0.195 0  0.12 0.195 0  0.135 0.195 0  0.15 0.195 0  0.165 0.195 0  0.18 0.195 0  0.195 0.195 0  0.21 0.195 0  0.225 0.195 0  0.24 0.195 0  0.255 0.195 0  0.27 0.195 0  0.285 0.195 0  0.3 0.195 0  0 0.21 0  0.015 0.21 0  0.03 0.21 0  0.045 0.21 0  0.06 0.21 0  0.075 0.21 0  0.09 0.21 0  0.105 0.21 0  0.12 0.21 0  0.135 0.21 0  0.15 0.21 0  0.165 0.21 0  0.18 0.21 0  0.195 0.21 0  0.21 0.21 0  0.225 0.21 0  0.24 0.21 0  0.255 0.21 0  0.27 0.21 0  0.285 0.21 0  0.3 0.21 0  0 0.225 0  0.015 0.225 0  0.03 0.225 0  0.045 0.225 0  0.06 0.225 0  0.075 0.225 0  0.09 0.225 0  0.105 0.225 0  0.12 0.225 0  0.135 0.225 0  0.15 0.225 0  0.165 0.225 0  0.18 0.225 0  0.195 0.225 0  0.21 0.225 0  0.225 0.225 0  0.24 0.225 0  0.255 0.225 0  0.27 0.225 0  0.285 0.225 0  0.3 0.225 0  0 0.24 0  0.015 0.24 0  0.03 0.24 0  0.045 0.24 0  0.06 0.24 0  0.075 0.24 0  0.09 0.24 0  0.105 0.24 0  0.12 0.24 0  0.135 0.24 0  0.15 0.24 0  0.165 0.24 0  0.18 0.24 0  0.195 0.24 0  0.21 0.24 0  0.225 0.24 0  0.24 0.24 0  0.255 0.24 0  0.27 0.24 0  0.285 0.24 0  0.3 0.24 0  0 0.255 0  0.015 0.255 0  0.03 0.255 0  0.045 0.255 0  0.06 0.255 0  0.075 0.255 0  0.09 0.255 0  0.105 0.255 0  0.12 0.255 0  0.135 0.255 0  0.15 0.255 0  0.165 0.255 0  0.18 0.255 0  0.195 0.255 0  0.21 0.255 0  0.225 0.255 0  0.24 0.255 0  0.255 0.255 0  0.27 0.255 0  0.285 0.255 0  0.3 0.255 0  0 0.27 0  0.015 0.27 0  0.03 0.27 0  0.045 0.27 0  0.06 0.27 0  0.075 0.27 0  0.09 0.27 0  0.105 0.27 0  0.12 0.27 0  0.135 0.27 0  0.15 0.27 0  0.165 0.27 0  0.18 0.27 0  0.195 0.27 0  0.21 0.27 0  0.225 0.27 0  0.24 0.27 0  0.255 0.27 0  0.27 0.27 0  0.285 0.27 0  0.3 0.27 0  0 0.285 0  0.015 0.285 0  0.03 0.285 0  0.045 0.285 0  0.06 0.285 0  0.075 0.285 0  0.09 0.285 0  0.105 0.285 0  0.12 0.285 0  0.135 0.285 0  0.15 0.285 0  0.165 0.285 0  0.18 0.285 0  0.195 0.285 0  0.21 0.285 0  0.225 0.285 0  0.24 0.285 0  0.255 0.285 0  0.27 0.285 0  0.285 0.285 0  0.3 0.285 0  0 0.3 0  0.015 0.3 0  0.03 0.3 0  0.045 0.3 0  0.06 0.3 0  0.075 0.3 0  0.09 0.3 0  0.105 0.3 0  0.12 0.3 0  0.135 0.3 0  0.15 0.3 0  0.165 0.3 0  0.18 0.3 0  0.195 0.3 0  0.21 0.3 0  0.225 0.3 0  0.24 0.3 0  0.255 0.3 0  0.27 0.3 0  0.285 0.3 0  0.3 0.3 0  0 0 0.00075  0.015 0 0.00075  0.03 0 0.00075  0.045 0 0.00075  0.06 0 0.00075  0.075 0 0.00075  0.09 0 0.00075  0.105 0 0.00075  0.12 0 0.00075  0.135 0 0.00075  0.15 0 0.00075  0.165 0 0.00075  0.18 0 0.00075  0.195 0 0.00075  0.21 0 0.00075  0.225 0 0.00075  0.24 0 0.00075  0.255 0 0.00075  0.27 0 0.00075  0.285 0 0.00075  0.3 0 0.00075  0 0.015 0.00075  0.015 0.015 0.00075  0.03 0.015 0.00075  0.045 0.015 0.00075  0.06 0.015 0.00075  0.075 0.015 0.00075  0.09 0.015 0.00075  0.105 0.015 0.00075  0.12 0.015 0.00075  0.135 0.015 0.00075  0.15 0.015 0.00075  0.165 0.015 0.00075  0.18 0.015 0.00075  0.195 0.015 0.00075  0.21 0.015 0.00075  0.225 0.015 0.00075  0.24 0.015 0.00075  0.255 0.015 0.00075  0.27 0.015 0.00075  0.285 0.015 0.00075  0.3 0.015 0.00075  0 0.03 0.00075  0.015 0.03 0.00075  0.03 0.03 0.00075  0.045 0.03 0.00075  0.06 0.03 0.00075  0.075 0.03 0.00075  0.09 0.03 0.00075  0.105 0.03 0.00075  0.12 0.03 0.00075  0.135 0.03 0.00075  0.15 0.03 0.00075  0.165 0.03 0.00075  0.18 0.03 0.00075  0.195 0.03 0.00075  0.21 0.03 0.00075  0.225 0.03 0.00075  0.24 0.03 0.00075  0.255 0.03 0.00075  0.27 0.03 0.00075  0.285 0.03 0.00075  0.3 0.03 0.00075  0 0.045 0.00075  0.015 0.045 0.00075  0.03 0.045 0.00075  0.045 0.045 0.00075  0.06 0.045 0.00075  0.075 0.045 0.00075  0.09 0.045 0.00075  0.105 0.045 0.00075  0.12 0.045 0.00075  0.135 0.045 0.00075  0.15 0.045 0.00075  0.165 0.045 0.00075  0.18 0.045 0.00075  0.195 0.045 0.00075  0.21 0.045 0.00075  0.225 0.045 0.00075  0.24 0.045 0.00075  0.255 0.045 0.00075  0.27 0.045 0.00075  0.285 0.045 0.00075  0.3 0.045 0.00075  0 0.06 0.00075  0.015 0.06 0.00075  0.03 0.06 0.00075  0.045 0.06 0.00075  0.06 0.06 0.00075  0.075 0.06 0.00075  0.09 0.06 0.00075  0.105 0.06 0.00075  0.12 0.06 0.00075  0.135 0.06 0.00075  0.15 0.06 0.00075  0.165 0.06 0.00075  0.18 0.06 0.00075  0.195 0.06 0.00075  0.21 0.06 0.00075  0.225 0.06 0.00075  0.24 0.06 0.00075  0.255 0.06 0.00075  0.27 0.06 0.00075  0.285 0.06 0.00075  0.3 0.06 0.00075  0 0.075 0.00075  0.015 0.075 0.00075  0.03 0.075 0.00075  0.045 0.075 0.00075  0.06 0.075 0.00075  0.075 0.075 0.00075  0.09 0.075 0.00075  0.105 0.075 0.00075  0.12 0.075 0.00075  0.135 0.075 0.00075  0.15 0.075 0.00075  0.165 0.075 0.00075  0.18 0.075 0.00075  0.195 0.075 0.00075  0.21 0.075 0.00075  0.225 0.075 0.00075  0.24 0.075 0.00075  0.255 0.075 0.00075  0.27 0.075 0.00075  0.285 0.075 0.00075  0.3 0.075 0.00075  0 0.09 0.00075  0.015 0.09 0.00075  0.03 0.09 0.00075  0.045 0.09 0.00075  0.06 0.09 0.00075  0.075 0.09 0.00075  0.09 0.09 0.00075  0.105 0.09 0.00075  0.12 0.09 0.00075  0.135 0.09 0.00075  0.15 0.09 0.00075  0.165 0.09 0.00075  0.18 0.09 0.00075  0.195 0.09 0.00075  0.21 0.09 0.00075  0.225 0.09 0.00075  0.24 0.09 0.00075  0.255 0.09 0.00075  0.27 0.09 0.00075  0.285 0.09 0.00075  0.3 0.09 0.00075  0 0.105 0.00075  0.015 0.105 0.00075  0.03 0.105 0.00075  0.045 0.105 0.00075  0.06 0.105 0.00075  0.075 0.105 0.00075  0.09 0.105 0.00075  0.105 0.105 0.00075  0.12 0.105 0.00075  0.135 0.105 0.00075  0.15 0.105 0.00075  0.165 0.105 0.00075  0.18 0.105 0.00075  0.195 0.105 0.00075  0.21 0.105 0.00075  0.225 0.105 0.00075  0.24 0.105 0.00075  0.255 0.105 0.00075  0.27 0.105 0.00075  0.285 0.105 0.00075  0.3 0.105 0.00075  0 0.12 0.00075  0.015 0.12 0.00075  0.03 0.12 0.00075  0.045 0.12 0.00075  0.06 0.12 0.00075  0.075 0.12 0.00075  0.09 0.12 0.00075  0.105 0.12 0.00075  0.12 0.12 0.00075  0.135 0.12 0.00075  0.15 0.12 0.00075  0.165 0.12 0.00075  0.18 0.12 0.00075  0.195 0.12 0.00075  0.21 0.12 0.00075  0.225 0.12 0.00075  0.24 0.12 0.00075  0.255 0.12 0.00075  0.27 0.12 0.00075  0.285 0.12 0.00075  0.3 0.12 0.00075  0 0.135 0.00075  0.015 0.135 0.00075  0.03 0.135 0.00075  0.045 0.135 0.00075  0.06 0.135 0.00075  0.075 0.135 0.00075  0.09 0.1
[...]
<PointData  Vectors="f_205"> 
<DataArray  type="Float64"  Name="f_205"  NumberOfComponents="3" format="ascii">-2.4217716664250357e+01 -4.8145522298245247e+01 -1.8561094384657406e+00  -2.0060746124413306e+01 -4.6719909879187746e+01 -1.8860009370190820e+00  -1.5920747096536063e+01 -4.5239488922503767e+01 -1.8883965262586433e+00  -1.1852391724058556e+01 -4.3663992329622147e+01 -1.8712070275842720e+00  -7.9029215762206446e+00 -4.1986577981902030e+01 -1.8415058657495418e+00  -4.1036712710113399e+00 -4.0215200354446679e+01 -1.8043486568577134e+00  -4.7140240775140613e-01 -3.8359088036491023e+01 -1.7623711902702712e+00  2.9853258138403049e+00 -3.6421733312721003e+01 -1.7158800399003222e+00  6.2586985627859004e+00 -3.4399676131999094e+01 -1.6632998704109399e+00  9.3356737817464612e+00 -3.2285780252500771e+01 -1.6020033635956159e+00  1.2195459936600692e+01 -3.0075235294511302e+01 -1.5295079521654469e+00  1.4811473593553204e+01 -2.7771644344607957e+01 -1.4446346793150944e+00  1.7156818323506513e+01 -2.5390350134479053e+01 -1.3479947579475573e+00  1.9210449981513804e+01 -2.2957735390002782e+01 -1.2415772041292839e+00  2.0961387045135091e+01 -2.0507861259860380e+01 -1.1279738544557332e+00  2.2410647401657840e+01 -1.8078952217705318e+01 -1.0101065077574800e+00  2.3572992100452492e+01 -1.5710856026117863e+01 -8.9190954733058636e-01  2.4480700755131561e+01 -1.3441505570756728e+01 -7.7962746822204632e-01  2.5188785763966745e+01 -1.1298147600446837e+01 -6.8278357250446398e-01  2.5776877747191946e+01 -9.2801282786405146e+00 -6.1363916921059958e-01  2.6339862042379863e+01 -7.3401060425191336e+00 -5.8443783677988626e-01  -2.5661605929820880e+01 -4.4003362213289059e+01 -1.8291288257915816e+00  -2.1528334292658553e+01 -4.2628693122707688e+01 -1.8659299623390400e+00  -1.7435498337030769e+01 -4.1245155798269607e+01 -1.8725331260756692e+00  -1.3432251639028065e+01 -3.9799706399273461e+01 -1.8562502149367281e+00  -9.5559203239447861e+00 -3.8273282065309786e+01 -1.8252116861603553e+00  -5.8315797587364058e+00 -3.6664356083717756e+01 -1.7855414423462623e+00  -2.2742772392071697e+00 -3.4976866028531859e+01 -1.7406558685862070e+00  1.1064975106035821e+00 -3.3213334892519967e+01 -1.6913039317003029e+00  4.3019268474995815e+00 -3.1372813700987489e+01 -1.6360718379668626e+00  7.3000020327248514e+00 -2.9452487652558375e+01 -1.5722720221533475e+00  1.0083906613662357e+01 -2.7451410440969383e+01 -1.4971931573326258e+00  1.2633390802299422e+01 -2.5374492841511366e+01 -1.4093645441957006e+00  1.4928588906222995e+01 -2.3234926031480406e+01 -1.3092028338595891e+00  1.6954372631448045e+01 -2.1054112734931145e+01 -1.1987188339404347e+00  1.8703354589226706e+01 -1.8859652501450167e+01 -1.0807385957128344e+00  2.0177208475863171e+01 -1.6682533718052564e+01 -9.5853781496960677e-01  2.1387716526003675e+01 -1.4554051066826304e+01 -8.3645184718099597e-01  2.2359221414038004e+01 -1.2501194074288467e+01 -7.2116124117558078e-01  2.3132553985131587e+01 -1.0537967498699309e+01 -6.2259315158832318e-01  2.3768508870492848e+01 -8.6507167289321600e+00 -5.5294944550895042e-01  2.4350625938501338e+01 -6.7776812573538683e+00 -5.1943991872866047e-01  -2.7064593915177557e+01 -3.9826663605718807e+01 -1.8010939015498406e+00  -2.2949524484492528e+01 -3.8530893184265608e+01 -1.8416949520963075e+00  -1.8877867394174075e+01 -3.7249202027637466e+01 -1.8521038392094527e+00  -1.4907002000325221e+01 -3.5932444285773364e+01 -1.8364785179498451e+00  -1.1073415204401924e+01 -3.4555270690899789e+01 -1.8036838131202482e+00  -7.3992756259333747e+00 -3.3108767614978071e+01 -1.7607800153019380e+00  -3.8971620045899922e+00 -3.1591790990090324e+01 -1.7118952409672279e+00  -5.7493268152844690e-01 -3.0005269070406261e+01 -1.6582486441568702e+00  2.5599985959071994e+00 -2.8349838050443591e+01 -1.5987507889070762e+00  5.4976366265279299e+00 -2.6626106469934033e+01 -1.5309508102175327e+00  8.2242375065467801e+00 -2.4836434178638804e+01 -1.4522576163080376e+00  1.0723437309023421e+01 -2.2987025140926384e+01 -1.3611575088380923e+00  1.2979252115457507e+01 -2.1089332499483277e+01 -1.2578962498593442e+00  1.4979450493800892e+01 -1.9160187216762722e+01 -1.1443116100602246e+00  1.6717807952276257e+01 -1.7220765074705035e+01 -1.0231955138893984e+00  1.8195011292484185e+01 -1.5294510403510989e+01 -8.9800655068806212e-01  1.9419591281127516e+01 -1.3404095872843691e+01 -7.7350355284310202e-01  2.0410642221679272e+01 -1.1566698818394894e+01 -6.5701838995894835e-01  2.1202795812038222e+01 -9.7864747310514844e+00 -5.5927348886156780e-01  2.1852362568297391e+01 -8.0437686442407959e+00 -4.9307424274324529e-01  2.2445991369345862e+01 -6.2816920576505195e+00 -4.6359655493211416e-01  -2.8367967631357285e+01 -3.5610016572306414e+01 -1.7753503116411626e+00  -2.4268809400900015e+01 -3.4423858477835886e+01 -1.8181243551737452e+00  -2.0209574649103025e+01 -3.3259303703608694e+01 -1.8307425238553237e+00  -1.6255183397618215e+01 -3.2076041461315754e+01 -1.8154877178704902e+00  -1.2445608236182345e+01 -3.0848963300396491e+01 -1.7810287295415512e+00  -8.8032349841880411e+00 -2.9565613809899123e+01 -1.7348457263303425e+00  -5.3394810387221803e+00 -2.8221445413505872e+01 -1.6815646810813361e+00  -2.0606456137807219e+00 -2.6815868856912669e+01 -1.6228942236196260e+00  1.0276039221981195e+00 -2.5350127896496350e+01 -1.5582627913845311e+00  3.9174076327303933e+00 -2.3826785806584418e+01 -1.4857590177069424e+00  6.5976965105762719e+00 -2.2250169706279259e+01 -1.4032283031354618e+00  9.0550787179285770e+00 -2.0627100386565097e+01 -1.3093181538333318e+00  1.1276212096200968e+01 -1.8967464435607180e+01 -1.2041019512104079e+00  1.3250464232943978e+01 -1.7284249859979042e+01 -1.0890444463620963e+00  1.4971769228966755e+01 -1.5593100030591337e+01 -9.6661619709395052e-01  1.6439527466783602e+01 -1.3910778888823840e+01 -8.4019182238193135e-01  1.7659899854381337e+01 -1.2252559938124335e+01 -7.1473694304565849e-01  1.8649238576928173e+01 -1.0628148440450532e+01 -5.9801722803036050e-01  1.9440154735184858e+01 -9.0358962566902807e+00 -5.0128109790155073e-01  2.0089131659689635e+01 -7.4558186708303840e+00 -4.3769512328027049e-01  2.0686631064006189e+01 -5.8431320711839314e+00 -4.1121627973537883e-01  -2.9536576988309537e+01 -3.1359309885950875e+01 -1.7535792488713731e+00  -2.5451190021922173e+01 -3.0307466648545830e+01 -1.7973703240396830e+00  -2.1401013163586882e+01 -2.9276717551965543e+01 -1.8108684848302183e+00  -1.7456163799539024e+01 -2.8235896828811484e+01 -1.7952772756596487e+00  -1.3660461500905921e+01 -2.7163148429552745e+01 -1.7589881047198301e+00  -1.0038088280081238e+01 -2.6045641955668234e+01 -1.7095616595264229e+00  -6.6006519825712591e+00 -2.4877328371404239e+01 -1.6519026542056172e+00  -3.3537195797767647e+00 -2.3656600964157612e+01 -1.5881294662980667e+00  -3.0166646196117686e-01 -2.2384688002921393e+01 -1.5182129548227952e+00  2.5494472596028683e+00 -2.1064850008831431e+01 -1.4408724805492659e+00  5.1908425679516785e+00 -1.9702093144527009e+01 -1.3545157471012210e+00  7.6116303155562122e+00 -1.8303083052229226e+01 -1.2580691556940731e+00  9.8006213284486812e+00 -1.6876177892742088e+01 -1.1514907717391913e+00  1.1748360704615321e+01 -1.5431229699419092e+01 -1.0358303695524509e+00  1.3448775566607560e+01 -1.3979542498047756e+01 -9.1312355351657493e-01  1.4900273817236013e+01 -1.2532600891844412e+01 -7.8650423333853858e-01  1.6107582418396419e+01 -1.1100025863900607e+01 -6.6097065630217500e-01  1.7085908266854283e+01 -9.6864561669338958e+00 -5.4452420995277406e-01  1.7867740700996556e+01 -8.2875323954441455e+00 -4.4869601122946495e-01  1.8510958391756258e+01 -6.8859122305341227e+00 -3.8675818934920791e-01  1.9108524400028195e+01 -5.4494178150220387e+00 -3.6188681225398017e-01  -3.0548945753552090e+01 -2.7082994796526869e+01 -1.7366547513040140e+00  -2.6475188724496704e+01 -2.6183641495191477e+01 -1.7806369323906632e+00  -2.2432450692800092e+01 -2.5301464813326625e+01 -1.7940662550756694e+00  -1.8494191217413110e+01 -2.4413153005573268e+01 -1.7774930006173468e+00  -1.4707372796841909e+01 -2.3500996993541520e+01 -1.7391276176866279e+00  -1.1098288409376103e+01 -2.2553536218196111e+01 -1.6865220326348977e+00  -7.6794774445609431e+00 -2.1564645390489041e+01 -1.6247284477756920e+00  -4.4564915966082523e+00 -2.0532273821575135e+01 -1.5561716528217928e+00  -1.4329766665169885e+00 -1.9457357343046318e+01 -1.4812884771417385e+00  1.3863502969431198e+00 -1.8343025986695977e+01 -1.3993728210352554e+00  3.9945734640832420e+00 -1.7194038884494709e+01 -1.3093743942546239e+00  6.3829031246044661e+00 -1.6016311134086134e+01 -1.2105313865418381e+00  8.5420178040769947e+00 -1.4816705639464956e+01 -1.1027588701178952e+00  1.0463511511543365e+01 -1.3602486717521870e+01 -9.8673793895088513e-01  1.2141474663340670e+01 -1.2381806131391002e+01 -8.6409453092521737e-01  1.3573801300519506e+01 -1.1162300245429320e+01 -7.3767852426087466e-01  1.4764528374573612e+01 -9.9496394139734026e+00 -6.1241561691613911e-01  1.5728588327989153e+01 -8.7453849018285617e+00 -4.9638994039796491e-01  1.6499016236674283e+01 -7.5444562482466564e+00 -4.0123082937572507e-01  1.7135010470371451e+01 -6.3331983160501322e+00 -3.4015045223259788e-01  1.7730649245480226e+01 -5.0899718975953627e+00 -3.1579866735605877e-01  -3.1391863239996354e+01 -2.2788670151215378e+01 -1.7250819824277241e+00  -2.7327635734081021e+01 -2.2054782900507860e+01 -1.7686923447571421e+00  -2.3291255618658763e+01 -2.1333198465930675e+01 -1.7814296467124253e+00  -1.9358332154864385e+01 -2.0606819642524769e+01 -1.7634230549105254e+00  -1.5578162801092798e+01 -1.9861998065988235e+01 -1.7228024817209673e+00  -1.1978906724925814e+01 -1.9089374576776073e+01 -1.6671203394575509e+00  -8.5742196153857382e+00 -1.8283567348639956e+01 -1.6015224822087260e+00  -5.3700090094363144e+00 -1.7442522707975463e+01 -1.5286530081435410e+00  -2.3695903169218977e+00 -1.6566818047306121e+01 -1.4493057733216406e+00  4.2327074123682612e-01 -1.5659006052975281e+01 -1.3632291996147532e+00  3.0031154994626790e+00 -1.4723050619300686e+01 -1.2698254985033277e+00  5.3628275916034225e+00 -1.3763761365586852e+01 -1.1686372843023152e+00  7.4946823366692019e+00 -1.2786623929283804e+01 -1.0596241164077504e+00  9.3911972249073781e+00 -1.1796634312394874e+01 -9.4314435767907623e-01  1.1046863382052749e+01 -1.0799904085543568e+01 -8.2050376843467565e-01  1.2459523327529061e+01 -9.8013998538156386e+00 -6.9428641731774476e-01  1.3633044608661706e+01 -8.8042125002028122e+00 -5.6929667007617335e-01  1.4582498407555857e+01 -7.8082790914484024e+00 -4.5359949969611085e-01  1.5341553090128206e+01 -6.8089386639590463e+00 -3.5879900486353650e-01  1.5970274534760401e+01 -5.7962389777075405e+00 -2.9796080033800448e-01  1.6562877795707859e+01 -4.7565369906512247e+00 -2.7337322623540095e-01  -3.2056840774074544e+01 -1.8482033648767530e+01 -1.7191311314023534e+00  -2.8000191013649655e+01 -1.7922905800689072e+01 -1.7620130016888587e+00  -2.3969278779497170e+01 -1.7371222901167229e+01 -1.7736889241526383e+00  -2.0041174511240911e+01 -1.6814728242610059e+01 -1.7539981062741341e+00  -1.6266833311534270e+01 -1.6243420099046283e+01 -1.7110643501834466e+00  -1.2675855146499243e+01 -1.5650229732058838e+01 -1.6524704674528992e+00  -9.2828770109914824e+00 -1.5030903298982249e+01 -1.5834343805140370e+00  -6.0942376756138401e+00 -1.4383656043393517e+01 -1.5067478108239019e+00  -3.1131180219352221e+00 -1.3708733654340097e+01 -1.4234475208097948e+00  -3.4260878023546210e-01 -1.3007927339471534e+01 -1.3336013787446219e+00  2.2130080226210573e+00 -1.2284083402121862e+01 -1.2369453070536771e+00  4.5478620750729801e+00 -1.1540682857353813e+01 -1.1333072479245276e+00  6.6555053603761225e+00 -1.0782074511264716e+01 -1.0228916798438676e+00  8.5290838305083554e+00 -1.0011032809523300e+01 -9.0571511360046297e-01  1.0163738046946543e+01 -9.2328297429987582e+00 -7.8286247143772092e-01  1.1557656132879202e+01 -8.4505355799970783e+00 -6.5665856564858249e-01  1.2714856321675637e+01 -7.6656105125576124e+00 -5.3176839335978310e-01  1.3650690284782844e+01 -6.8773352959482796e+00 -4.1618380570316382e-01  1.4399314713509186e+01 -6.0820550146084358e+00 -3.2141567244131752e-01  1.5021202097576641e+01 -5.2731257151440589e+00 -2.6035042963147564e-01  1.5610139276364020e+01 -4.4427293181596683e+00 -2.3502646765215446e-01  -3.2537706903863800e+01 -1.4167121156042700e+01 -1.7188190822939400e+00  -2.8487046960825367e+01 -1.3789513084176681e+01 -1.7607609210092736e+00  -2.4460936183584344e+01 -1.3414601802597979e+01 -1.7711749143109343e+00  -2.0537543441011220e+01 -1.3034123894478562e+01 -1.7497018273883509e+00  -1.6768969110122772e+01 -1.2641321401965333e+01 -1.7045131635575719e+00  -1.3185817876235731e+01 -1.2231380997666815e+01 -1.6432539893192064e+00  -9.8034380708795119e+00 -1.1801326921159601e+01 -1.5712098575196702e+00  -6.6284990975498612e+00 -1.1349814789131443e+01 -1.4912653215235079e+00  -3.6640928776182236e+00 -1.0876860994003335e+01 -1.4045866934355782e+00  -9.1280242728798100e-01 -1.0383503591584008e+01 -1.3114041123817959e+00  1.6220505975264481e+00 -9.8713720250121479e+00 -1.2116501682719536e+00  3.9357718955684247e+00 -9.3422009704327920e+00 -1.1051848457534748e+00  6.0228439924513024e+00 -8.7991635017652996e+00 -9.9297131663339955e-01  7.8759937150962074e+00 -8.2428093603874846e+00 -8.7466995990373009e-01  9.4914907475923744e+00 -7.6792271839409949e+00 -7.5135147740683472e-01  1.0868336256803236e+01 -7.1097871318272441e+00 -6.2493163613766189e-01  1.2010846227106045e+01 -6.5348656910367291e+00 -4.9990589022105697e-01  1.2934614608200002e+01 -5.9536941328136210e+00 -3.8417460149835631e-01  1.3674057887945597e+01 -5.3639007653321524e+00 -2.8913005927101482e-01  1.4289692229085409e+01 -4.7616941295661359e+00 -2.2747994572742694e-01  1.4874613928838713e+01 -4.1435090290078991e+00 -2.0109167529043051e-01  -3.2829310615759120e+01 -9.8473505870072184e+00 -1.7239059022654528e+00  -2.8783642779972084e+01 -9.6560989183143597e+00 -1.7647601406633673e+00  -2.4762032201132175e+01 -9.4626955842219758e+00 -1.7737676055336458e+00  -2.0843569077517806e+01 -9.2625104879505855e+00 -1.7504568669167779e+00  -1.7081145382383969e+01 -9.0517520805219132e+00 -1.7030855941760346e+00  -1.3506006207551170e+01 -8.8277447414779466e+00 -1.6393947638703876e+00  -1.0133928512820205e+01 -8.5887898972320667e+00 -1.5647594806924494e+00  -6.9717429701681004e+00 -8.3340468981067648e+00 -1.4821570229629006e+00  -4.0223929120410205e+00 -8.0634196098618869e+00 -1.3928466002966819e+00  -1.2879800048269046e+00 -7.7774044365975330e+00 -1.2971155879699903e+00  1.2288599390140917e+00 -7.4768504491617911e+00 -1.1948588343112374e+00  3.5238756236120028e+00 -7.1627933093032627e+00 -1.0859190598421093e+00  5.5957565279123189e+00 -6.8334579506653030e+00 -9.7113658425224170e-01  7.4314184484305139e+00 -6.4890037535012439e+00 -8.5028989722352766e-01  9.0295587506760597e+00 -6.1377225464678116e+00 -7.2605054330917518e-01  1.0391256912377019e+01 -5.7789923181317775e+00 -5.9915305884763326e-01  1.1521060844610671e+01 -5.4124696412477507e+00 -4.7373975025867937e-01  1.2434569970336991e+01 -5.0377562725492027e+00 -3.5759809168196144e-01  1.3166177583902956e+01 -4.6539179535487643e+00 -2.6199756345556996e-01  1.3776173966666857e+01 -4.2596758778001842e+00 -1.9948400524929691e-01  1.4356896517026525e+01 -3.8547309482114263e+00 -1.7181346048366147e-01  -3.2927494872454147e+01 -5.5266044116889415e+00 -1.7340735115881585e+00  -2.8886396868450184e+01 -5.5247857128369553e+00 -1.7736764259339288e+00  -2.4869353819555151e+01 -5.5158256702673141e+00 -1.7810943098190595e+00  -2.0956261356701390e+01 -5.4986265956656242e+00 -1.7558213062835408e+00  -1.7200564902101426e+01 -5.4722192345835943e+00 -1.7062130897150727e+00  -1.3633874322974570e+01 -5.4359299229643696e+00 -1.6401182464979098e+00  -1.0272168956486629e+01 -5.3892145866469106e+00 -1.5630131956846971e+00  -7.1223206220150805e+00 -5.3316086738842463e+00 -1.4779832251702616e+00  -4.1871281873235588e+00 -5.2627471347504891e+00 -1.3864193084014975e+00  -1.4682924786609080e+00 -5.1823855853208265e+00 -1.2887708100510453e+00  1.0322834263637464e+00 -5.0903953743793418e+00 -1.1850940313316944e+00  3.3122458433692641e+00 -4.9867649725175580e+00 -1.0753505020490155e+00  5.3708739617872681e+00 -4.8720081232977970e+00 -9.6083017878842292e-01  7.1943884950384369e+00 -4.7454541924343205e+00 -8.3325188498600256e-01  8.7765741562779382e+00 -4.6070497757403732e+00 -7.0708068203702856e-01  1.0125264283670436e+01 -4.4580456526760459e+00 -5.7934641339587190e-01  1.1244710949202036e+01 -4.2987091674107223e+00 -4.5328257936693356e-01  1.2150008183572419e+01 -4.1295316188956237e+00 -3.3647701424227150e-01  1.2875214513125547e+01 -3.9511891426956089e+00 -2.4006870337225067e-01  1.3480209563362875e+01 -3.7647743978127379e+00 -1.7646435484162923e-01  1.4056627136140211e+01 -3.5727851150472567e+00 -1.4735925437217218e-01  -3.2829916795846735e+01 -1.2094009276511817e+00 -1.7492128381023531e+00  -2.8793176014507793e+01 -1.3983184174614975e+00 -1.7873625752120497e+00  -2.4780925010903058e+01 -1.5751882560073311e+00 -1.7929739559316766e+00  -2.0873706112372233e+01 -1.7424336964770741e+00 -1.7655613495835589e+00  -1.7125295707664936e+01 -1.9019025879084812e+00 -1.7135674720505705e+00  -1.3567403990803369e+01 -2.0548590026876794e+00 -1.6449297860988552e+00  -1.0215962527776972e+01 -2.2018197889711408e+00 -1.5651946434070496e+00  -7.0776876189939042e+00 -2.3426131182516801e+00 -1.4774975748625279e+00  -4.1551168151104196e+00 -2.4765599489209711e+00 -1.3832609230093593e+00  -1.4495907445042266e+00 -2.6026752744580879e+00 -1.2829370582960673e+00  1.0373228122809814e+00 -2.7198395435352141e+00 -1.1765226095567602e+00  3.3032586795486543e+00 -2.8270336725496681e+00 -1.0639019807371159e+00  5.3444846378109165e+00 -2.9233708732373143e+00 -9.4514039182461074e-01  7.1549628543516155e+00 -3.0122190319993498e+00 -8.2056399186944318e-01  8.7270261184776796e+00 -3.0876273507058087e+00 -6.9395289599739174e-01  1.0067671324362983e+01 -3.1475685323877776e+00 -5.6543182430710293e-01  1.1180289006393789e+01 -3.1940827316887250e+00 -4.3853554907796288e-01  1.2079850519624946e+01 -3.2289674105862041e+00 -3.2083778392112922e-01  1.2800210246095599e+01 -3.2546616149112477e+00 -2.2338751587834277e-01  1.3400848245117491e+01 -3.2746716397332989e+00 -1.5848755572041814e-01  1.3972838500194037e+01 -3.2942744021148984e+00 -1.2782706083642736e-01  -3.2536535386659367e+01 3.0998952108779720e+00 -1.7695218248739621e+00  -2.8503686732482091e+01 2.7206904676431840e+00 -1.8060191142775444e+00  -2.4496343433339806e+01 2.3581645564427629e+00 -1.8096443029625211e+00  -2.0595477861698100e+01 2.0062375651176150e+00 -1.7799688814799608e+00  -1.6854939231267466e+01 1.6601324208052302e+00 -1.7255213345280598e+00  -1.3306295849714420e+01 1.3166757860948455e+00 -1.6543224252670239e+00  -9.9652596324701737e+00 9.7440659461418677e-01 -1.5719867098335925e+00  -6.8383255277436392e+00 6.3332955191070972e-01 -1.4817061579774473e+00  -3.9278292297538768e+00 2.9451683824643665e-01 -1.3849605628689035e+00  -1.2349330023778204e+00 -4.0289697620226918e-02 -1.2822797814705276e+00  1.2389387613902800e+00 -3.6901521888066668e-01 -1.1737851607878820e+00  3.4915053773421403e+00 -6.8954389878469113e-01 -1.0595403084704489e+00  5.5194524571411545e+00 -1.0000025341963039e+00 -9.3983869270910991e-01  7.3184894470292603e+00 -1.2997595528201527e+00 -8.1538134295837583e-01  8.8849506803562832e+00 -1.5827284535235571e+00 -6.8784339374689984e-01  1.0219914789164084e+01 -1.8490527033540956e+00 -5.5784582799556026e-01  1.1327686725472793e+01 -2.0993748038338169e+00 -4.2966971320833608e-01  1.2223261638064036e+01 -2.3360676151766779e+00 -3.1075879070884310e-01  1.2940004472711555e+01 -2.5632382688262707e+00 -2.1199871131918474e-01  1.3536762247053792e+01 -2.7869634772798282e+00 -1.4558273969090268e-01  1.4104060412686790e+01 -3.0156704240490302e+00 -1.1324650283651623e-01  -3.2049050104034265e+01 7.3977370674415521e+00 -1.7953212081663228e+00  -2.8019143577042264e+01 6.8304119198580988e+00 -1.8299