<?xml version="1.0"?>
<VTKFile type="UnstructuredGrid"  version="0.1"  >
<UnstructuredGrid>
<Piece  NumberOfPoints="9261" NumberOfCells="48000">
<Points>
<DataArray  type="Float64"  NumberOfComponents="3"  format="ascii">0 0 0  0.015 0 0  0.03 0 0  0.045 0 0  0.06 0 0  0.075 0 0  0.09 0 0  0.105 0 0  0.12 0 0  0.135 0 0  0.15 0 0  0.165 0 0  0.18 0 0  0.195 0 0  0.21 0 0  0.225 0 0  0.24 0 0  0.255 0 0  0.27 0 0  0.285 0 0  0.3 0 0  0 0.015 0  0.015 0.015 0  0.03 0.015 0  0.045 0.015 0  0.06 0.015 0  0.075 0.015 0  0.09 0.015 0  0.105 0.015 0  0.12 0.015 0  0.135 0.015 0  0.15 0.015 0  0.165 0.015 0  0.18 0.015 0  0.195 0.015 0  0.21 0.015 0  0.225 0.015 0  0.24 0.015 0  0.255 0.015 0  0.27 0.015 0  0.285 0.015 0  0.3 0.015 0  0 0.03 0  0.015 0.03 0  0.03 0.03 0  0.045 0.03 0  0.06 0.03 0  0.075 0.03 0  0.09 0.03 0  0.105 0.03 0  0.12 0.03 0  0.135 0.03 0  0.15 0.03 0  0.165 0.03 0  0.18 0.03 0  0.195 0.03 0  0.21 0.03 0  0.225 0.03 0  0.24 0.03 0  0.255 0.03 0  0.27 0.03 0  0.285 0.03 0  0.3 0.03 0  0 0.045 0  0.015 0.045 0  0.03 0.045 0  0.045 0.045 0  0.06 0.045 0  0.075 0.045 0  0.09 0.045 0  0.105 0.045 0  0.12 0.045 0  0.135 0.045 0  0.15 0.045 0  0.165 0.045 0  0.18 0.045 0  0.195 0.045 0  0.21 0.045 0  0.225 0.045 0  0.24 0.045 0  0.255 0.045 0  0.27 0.045 0  0.285 0.045 0  0.3 0.045 0  0 0.06 0  0.015 0.06 0  0.03 0.06 0  0.045 0.06 0  0.06 0.06 0  0.075 0.06 0  0.09 0.06 0  0.105 0.06 0  0.12 0.06 0  0.135 0.06 0  0.15 0.06 0  0.165 0.06 0  0.18 0.06 0  0.195 0.06 0  0.21 0.06 0  0.225 0.06 0  0.24 0.06 0  0.255 0.06 0  0.27 0.06 0  0.285 0.06 0  0.3 0.06 0  0 0.075 0  0.015 0.075 0  0.03 0.075 0  0.045 0.075 0  0.06 0.075 0  0.075 0.075 0  0.09 0.075 0  0.105 0.075 0  0.12 0.075 0  0.135 0.075 0  0.15 0.075 0  0.165 0.075 0  0.18 0.075 0  0.195 0.075 0  0.21 0.075 0  0.225 0.075 0  0.24 0.075 0  0.255 0.075 0  0.27 0.075 0  0.285 0.075 0  0.3 0.075 0  0 0.09 0  0.015 0.09 0  0.03 0.09 0  0.045 0.09 0  0.06 0.09 0  0.075 0.09 0  0.09 0.09 0  0.105 0.09 0  0.12 0.09 0  0.135 0.09 0  0.15 0.09 0  0.165 0.09 0  0.18 0.09 0  0.195 0.09 0  0.21 0.09 0  0.225 0.09 0  0.24 0.09 0  0.255 0.09 0  0.27 0.09 0  0.285 0.09 0  0.3 0.09 0  0 0.105 0  0.015 0.105 0  0.03 0.105 0  0.045 0.105 0  0.06 0.105 0  0.075 0.105 0  0.09 0.105 0  0.105 0.105 0  0.12 0.105 0  0.135 0.105 0  0.15 0.105 0  0.165 0.105 0  0.18 0.105 0  0.195 0.105 0  0.21 0.105 0  0.225 0.105 0  0.24 0.105 0  0.255 0.105 0  0.27 0.105 0  0.285 0.105 0  0.3 0.105 0  0 0.12 0  0.015 0.12 0  0.03 0.12 0  0.045 0.12 0  0.06 0.12 0  0.075 0.12 0  0.09 0.12 0  0.105 0.12 0  0.12 0.12 0  0.135 0.12 0  0.15 0.12 0  0.165 0.12 0  0.18 0.12 0  0.195 0.12 0  0.21 0.12 0  0.225 0.12 0  0.24 0.12 0  0.255 0.12 0  0.27 0.12 0  0.285 0.12 0  0.3 0.12 0  0 0.135 0  0.015 0.135 0  0.03 0.135 0  0.045 0.135 0  0.06 0.135 0  0.075 0.135 0  0.09 0.135 0  0.105 0.135 0  0.12 0.135 0  0.135 0.135 0  0.15 0.135 0  0.165 0.135 0  0.18 0.135 0  0.195 0.135 0  0.21 0.135 0  0.225 0.135 0  0.24 0.135 0  0.255 0.135 0  0.27 0.135 0  0.285 0.135 0  0.3 0.135 0  0 0.15 0  0.015 0.15 0  0.03 0.15 0  0.045 0.15 0  0.06 0.15 0  0.075 0.15 0  0.09 0.15 0  0.105 0.15 0  0.12 0.15 0  0.135 0.15 0  0.15 0.15 0  0.165 0.15 0  0.18 0.15 0  0.195 0.15 0  0.21 0.15 0  0.225 0.15 0  0.24 0.15 0  0.255 0.15 0  0.27 0.15 0  0.285 0.15 0  0.3 0.15 0  0 0.165 0  0.015 0.165 0  0.03 0.165 0  0.045 0.165 0  0.06 0.165 0  0.075 0.165 0  0.09 0.165 0  0.105 0.165 0  0.12 0.165 0  0.135 0.165 0  0.15 0.165 0  0.165 0.165 0  0.18 0.165 0  0.195 0.165 0  0.21 0.165 0  0.225 0.165 0  0.24 0.165 0  0.255 0.165 0  0.27 0.165 0  0.285 0.165 0  0.3 0.165 0  0 0.18 0  0.015 0.18 0  0.03 0.18 0  0.045 0.18 0  0.06 0.18 0  0.075 0.18 0  0.09 0.18 0  0.105 0.18 0  0.12 0.18 0  0.135 0.18 0  0.15 0.18 0  0.165 0.18 0  0.18 0.18 0  0.195 0.18 0  0.21 0.18 0  0.225 0.18 0  0.24 0.18 0  0.255 0.18 0  0.27 0.18 0  0.285 0.18 0  0.3 0.18 0  0 0.195 0  0.015 0.195 0  0.03 0.195 0  0.045 0.195 0  0.06 0.195 0  0.075 0.195 0  0.09 0.195 0  0.105 0.195 0  0.12 0.195 0  0.135 0.195 0  0.15 0.195 0  0.165 0.195 0  0.18 0.195 0  0.195 0.195 0  0.21 0.195 0  0.225 0.195 0  0.24 0.195 0  0.255 0.195 0  0.27 0.195 0  0.285 0.195 0  0.3 0.195 0  0 0.21 0  0.015 0.21 0  0.03 0.21 0  0.045 0.21 0  0.06 0.21 0  0.075 0.21 0  0.09 0.21 0  0.105 0.21 0  0.12 0.21 0  0.135 0.21 0  0.15 0.21 0  0.165 0.21 0  0.18 0.21 0  0.195 0.21 0  0.21 0.21 0  0.225 0.21 0  0.24 0.21 0  0.255 0.21 0  0.27 0.21 0  0.285 0.21 0  0.3 0.21 0  0 0.225 0  0.015 0.225 0  0.03 0.225 0  0.045 0.225 0  0.06 0.225 0  0.075 0.225 0  0.09 0.225 0  0.105 0.225 0  0.12 0.225 0  0.135 0.225 0  0.15 0.225 0  0.165 0.225 0  0.18 0.225 0  0.195 0.225 0  0.21 0.225 0  0.225 0.225 0  0.24 0.225 0  0.255 0.225 0  0.27 0.225 0  0.285 0.225 0  0.3 0.225 0  0 0.24 0  0.015 0.24 0  0.03 0.24 0  0.045 0.24 0  0.06 0.24 0  0.075 0.24 0  0.09 0.24 0  0.105 0.24 0  0.12 0.24 0  0.135 0.24 0  0.15 0.24 0  0.165 0.24 0  0.18 0.24 0  0.195 0.24 0  0.21 0.24 0  0.225 0.24 0  0.24 0.24 0  0.255 0.24 0  0.27 0.24 0  0.285 0.24 0  0.3 0.24 0  0 0.255 0  0.015 0.255 0  0.03 0.255 0  0.045 0.255 0  0.06 0.255 0  0.075 0.255 0  0.09 0.255 0  0.105 0.255 0  0.12 0.255 0  0.135 0.255 0  0.15 0.255 0  0.165 0.255 0  0.18 0.255 0  0.195 0.255 0  0.21 0.255 0  0.225 0.255 0  0.24 0.255 0  0.255 0.255 0  0.27 0.255 0  0.285 0.255 0  0.3 0.255 0  0 0.27 0  0.015 0.27 0  0.03 0.27 0  0.045 0.27 0  0.06 0.27 0  0.075 0.27 0  0.09 0.27 0  0.105 0.27 0  0.12 0.27 0  0.135 0.27 0  0.15 0.27 0  0.165 0.27 0  0.18 0.27 0  0.195 0.27 0  0.21 0.27 0  0.225 0.27 0  0.24 0.27 0  0.255 0.27 0  0.27 0.27 0  0.285 0.27 0  0.3 0.27 0  0 0.285 0  0.015 0.285 0  0.03 0.285 0  0.045 0.285 0  0.06 0.285 0  0.075 0.285 0  0.09 0.285 0  0.105 0.285 0  0.12 0.285 0  0.135 0.285 0  0.15 0.285 0  0.165 0.285 0  0.18 0.285 0  0.195 0.285 0  0.21 0.285 0  0.225 0.285 0  0.24 0.285 0  0.255 0.285 0  0.27 0.285 0  0.285 0.285 0  0.3 0.285 0  0 0.3 0  0.015 0.3 0  0.03 0.3 0  0.045 0.3 0  0.06 0.3 0  0.075 0.3 0  0.09 0.3 0  0.105 0.3 0  0.12 0.3 0  0.135 0.3 0  0.15 0.3 0  0.165 0.3 0  0.18 0.3 0  0.195 0.3 0  0.21 0.3 0  0.225 0.3 0  0.24 0.3 0  0.255 0.3 0  0.27 0.3 0  0.285 0.3 0  0.3 0.3 0  0 0 0.00075  0.015 0 0.00075  0.03 0 0.00075  0.045 0 0.00075  0.06 0 0.00075  0.075 0 0.00075  0.09 0 0.00075  0.105 0 0.00075  0.12 0 0.00075  0.135 0 0.00075  0.15 0 0.00075  0.165 0 0.00075  0.18 0 0.00075  0.195 0 0.00075  0.21 0 0.00075  0.225 0 0.00075  0.24 0 0.00075  0.255 0 0.00075  0.27 0 0.00075  0.285 0 0.00075  0.3 0 0.00075  0 0.015 0.00075  0.015 0.015 0.00075  0.03 0.015 0.00075  0.045 0.015 0.00075  0.06 0.015 0.00075  0.075 0.015 0.00075  0.09 0.015 0.00075  0.105 0.015 0.00075  0.12 0.015 0.00075  0.135 0.015 0.00075  0.15 0.015 0.00075  0.165 0.015 0.00075  0.18 0.015 0.00075  0.195 0.015 0.00075  0.21 0.015 0.00075  0.225 0.015 0.00075  0.24 0.015 0.00075  0.255 0.015 0.00075  0.27 0.015 0.00075  0.285 0.015 0.00075  0.3 0.015 0.00075  0 0.03 0.00075  0.015 0.03 0.00075  0.03 0.03 0.00075  0.045 0.03 0.00075  0.06 0.03 0.00075  0.075 0.03 0.00075  0.09 0.03 0.00075  0.105 0.03 0.00075  0.12 0.03 0.00075  0.135 0.03 0.00075  0.15 0.03 0.00075  0.165 0.03 0.00075  0.18 0.03 0.00075  0.195 0.03 0.00075  0.21 0.03 0.00075  0.225 0.03 0.00075  0.24 0.03 0.00075  0.255 0.03 0.00075  0.27 0.03 0.00075  0.285 0.03 0.00075  0.3 0.03 0.00075  0 0.045 0.00075  0.015 0.045 0.00075  0.03 0.045 0.00075  0.045 0.045 0.00075  0.06 0.045 0.00075  0.075 0.045 0.00075  0.09 0.045 0.00075  0.105 0.045 0.00075  0.12 0.045 0.00075  0.135 0.045 0.00075  0.15 0.045 0.00075  0.165 0.045 0.00075  0.18 0.045 0.00075  0.195 0.045 0.00075  0.21 0.045 0.00075  0.225 0.045 0.00075  0.24 0.045 0.00075  0.255 0.045 0.00075  0.27 0.045 0.00075  0.285 0.045 0.00075  0.3 0.045 0.00075  0 0.06 0.00075  0.015 0.06 0.00075  0.03 0.06 0.00075  0.045 0.06 0.00075  0.06 0.06 0.00075  0.075 0.06 0.00075  0.09 0.06 0.00075  0.105 0.06 0.00075  0.12 0.06 0.00075  0.135 0.06 0.00075  0.15 0.06 0.00075  0.165 0.06 0.00075  0.18 0.06 0.00075  0.195 0.06 0.00075  0.21 0.06 0.00075  0.225 0.06 0.00075  0.24 0.06 0.00075  0.255 0.06 0.00075  0.27 0.06 0.00075  0.285 0.06 0.00075  0.3 0.06 0.00075  0 0.075 0.00075  0.015 0.075 0.00075  0.03 0.075 0.00075  0.045 0.075 0.00075  0.06 0.075 0.00075  0.075 0.075 0.00075  0.09 0.075 0.00075  0.105 0.075 0.00075  0.12 0.075 0.00075  0.135 0.075 0.00075  0.15 0.075 0.00075  0.165 0.075 0.00075  0.18 0.075 0.00075  0.195 0.075 0.00075  0.21 0.075 0.00075  0.225 0.075 0.00075  0.24 0.075 0.00075  0.255 0.075 0.00075  0.27 0.075 0.00075  0.285 0.075 0.00075  0.3 0.075 0.00075  0 0.09 0.00075  0.015 0.09 0.00075  0.03 0.09 0.00075  0.045 0.09 0.00075  0.06 0.09 0.00075  0.075 0.09 0.00075  0.09 0.09 0.00075  0.105 0.09 0.00075  0.12 0.09 0.00075  0.135 0.09 0.00075  0.15 0.09 0.00075  0.165 0.09 0.00075  0.18 0.09 0.00075  0.195 0.09 0.00075  0.21 0.09 0.00075  0.225 0.09 0.00075  0.24 0.09 0.00075  0.255 0.09 0.00075  0.27 0.09 0.00075  0.285 0.09 0.00075  0.3 0.09 0.00075  0 0.105 0.00075  0.015 0.105 0.00075  0.03 0.105 0.00075  0.045 0.105 0.00075  0.06 0.105 0.00075  0.075 0.105 0.00075  0.09 0.105 0.00075  0.105 0.105 0.00075  0.12 0.105 0.00075  0.135 0.105 0.00075  0.15 0.105 0.00075  0.165 0.105 0.00075  0.18 0.105 0.00075  0.195 0.105 0.00075  0.21 0.105 0.00075  0.225 0.105 0.00075  0.24 0.105 0.00075  0.255 0.105 0.00075  0.27 0.105 0.00075  0.285 0.105 0.00075  0.3 0.105 0.00075  0 0.12 0.00075  0.015 0.12 0.00075  0.03 0.12 0.00075  0.045 0.12 0.00075  0.06 0.12 0.00075  0.075 0.12 0.00075  0.09 0.12 0.00075  0.105 0.12 0.00075  0.12 0.12 0.00075  0.135 0.12 0.00075  0.15 0.12 0.00075  0.165 0.12 0.00075  0.18 0.12 0.00075  0.195 0.12 0.00075  0.21 0.12 0.00075  0.225 0.12 0.00075  0.24 0.12 0.00075  0.255 0.12 0.00075  0.27 0.12 0.00075  0.285 0.12 0.00075  0.3 0.12 0.00075  0 0.135 0.00075  0.015 0.135 0.00075  0.03 0.135 0.00075  0.045 0.135 0.00075  0.06 0.135 0.00075  0.075 0.135 0.00075  0.09 0.1
[...]
<PointData  Scalars="f_1666"> 
<DataArray  type="Float64"  Name="f_1666"  format="ascii">-4.0847447996093172e-09  7.5110381776255974e-09  -1.0719356708658656e-08  5.5234594579656468e-09  1.2027922934411626e-09  -1.3089099644627676e-09  -5.9025889939573014e-10  5.0832594316472367e-11  1.5590975226429097e-10  9.1750578919259222e-11  3.6580565727593845e-11  1.1721723097422486e-11  3.2299020625757611e-12  7.9341109264358996e-13  1.7765978538832180e-13  3.6810415622439297e-14  7.1328905257215519e-15  1.3027934186908605e-15  2.2566873722701711e-16  3.6795517826629856e-17  1.3331899567030893e-17  -6.7886777093620098e-09  2.1350144539033066e-08  -4.0677698948961310e-08  3.0301164803442495e-08  -3.2930442195706713e-10  -7.2131344476661005e-09  -1.6223015698613052e-09  8.9969489802708928e-10  8.5435180223104674e-10  3.9715509460761651e-10  1.3670656920214458e-10  3.8980687397710235e-11  9.6968110970436036e-12  2.1674162129799363e-12  4.4355200465452270e-13  8.4170799512966936e-14  1.4943828877561570e-14  2.4978852346688718e-15  3.9472553785273498e-16  5.7995924413438653e-17  1.7049973373325712e-17  -2.0638878464642865e-09  9.5908675626017872e-08  -2.6605545407006557e-07  2.7804429599739621e-07  -5.7186191872477431e-08  -6.3258901305993626e-08  -2.0035611296798719e-09  1.2813856070756570e-08  8.0251269992104543e-09  3.1320721463609113e-09  9.5546570358956649e-10  2.4727886470166967e-10  5.6616004284993604e-11  1.1759447872081203e-11  2.2526694021834886e-12  4.0257101210225376e-13  6.7668327653915287e-14  1.0762664283749575e-14  1.6265553390624615e-15  2.3279011813662141e-16  6.4842864804892745e-17  1.2053541805675594e-07  3.1610413876337739e-07  -1.5591383903756222e-06  2.3231872830518687e-06  -9.6024556880273212e-07  -4.5914749366943559e-07  1.0529472330304024e-07  1.4550491182555243e-07  6.9136022004665079e-08  2.2985007399601106e-08  6.1951640779622760e-09  1.4418981927495330e-09  2.9996129192121028e-10  5.6975264500889985e-11  1.0020752612696833e-11  1.6476924318592288e-12  2.5495960049605066e-13  3.7287578495768287e-14  5.1660472640559284e-15  6.7792048105126029e-16  1.6977714837942661e-16  7.7156252361159723e-07  2.9325443149196504e-07  -7.6254857091508767e-06  1.7358459378206114e-05  -1.1640471943170444e-05  -2.2927115033549000e-06  1.9864356264593532e-06  1.4273403639066103e-06  5.4443661371709298e-07  1.5557127008732085e-07  3.7029785245366065e-08  7.7223166290098408e-09  1.4521455839168009e-09  2.5069092787714394e-10  4.0199862681201806e-11  6.0339442401068832e-12  8.5176650321861077e-13  1.1333484723597100e-13  1.4210870794457196e-14  1.6823778948154128e-15  3.7048589157537044e-16  1.5731751036126835e-06  -4.6552198962885783e-06  -2.6877525318778949e-05  1.1355459146746110e-04  -1.1848841882219267e-04  1.5871829456338757e-06  2.5172005347198645e-05  1.2483629581531887e-05  3.9115463881084116e-06  9.6160383733843231e-07  2.0119438009670990e-07  3.7332800767022715e-08  6.2916410396720900e-09  9.7720883738914314e-10  1.4114134764400839e-10  1.9050225289078488e-11  2.4063149189798487e-12  2.8380161642991276e-13  3.1021025983449371e-14  3.1265051617014449e-15  5.4574690339273348e-16  -9.2806737530315570e-06  -3.1427919564822308e-05  -2.6723759389335558e-05  6.1451690552091764e-04  -1.0499691003088118e-03  2.3889915314321999e-04  2.6362326874243504e-04  9.7986204470208228e-05  2.5355603887184548e-05  5.3303625196976442e-06  9.7089378196138122e-07  1.5840898588286935e-07  2.3590407641416992e-08  3.2402589328072745e-09  4.1239700090967949e-10  4.8600377956005479e-11  5.2648299715154365e-12  5.1461410411509855e-13  4.3399383018062757e-14  2.8237983303347568e-15  8.2981914317024080e-17  -5.2788060541266130e-05  -2.8065541944761711e-05  4.2212918278876799e-04  2.3157701880638566e-03  -8.0265139501507279e-03  4.0962801415040878e-03  2.3944512954569282e-03  6.8286767826917193e-04  1.4476945938083068e-04  2.5655897126730669e-05  3.9979995242476708e-06  5.6174202302774163e-07  7.2019290443906037e-08  8.4485287624012270e-09  9.0084415286847402e-10  8.5437426692724774e-11  6.8000072905064379e-12  3.6846791686104775e-13  -6.6149653669628756e-15  -5.8073527786197035e-15  -2.2383652680249477e-15  2.2426179596806727e-04  6.2643353508184344e-04  2.3169075833381872e-03  1.1849372698436922e-03  -4.9389589494493263e-02  5.0426539346111708e-02  1.8830834866926400e-02  4.0849629757071558e-03  6.9340622056420756e-04  1.0075427900356780e-04  1.2988406507454305e-05  1.5038561926727644e-06  1.5569742756017035e-07  1.4027804697326551e-08  1.0098898070773024e-09  3.8380179009806905e-11  -4.2408941790637490e-12  -1.3141878179113104e-12  -2.1454536400632536e-13  -2.7845556515148080e-14  -5.9927022299074470e-15  -2.3415809111349735e-04  -1.0676233598394353e-03  -8.0288970477918383e-03  -4.9389888886255257e-02  -1.8048527297952519e-01  4.9748200462126269e-01  1.2147124268384127e-01  1.9254509531318839e-02  2.4895848450296690e-03  2.7857079183964020e-04  2.7133301450761718e-05  2.2117205336809401e-06  1.2807420994339094e-07  -3.8182545827939958e-11  -1.4857232207269577e-09  -2.9382757595206566e-10  -4.0904558153507134e-11  -4.6680731377828462e-12  -4.4467405544641638e-13  -3.3744287814316432e-14  -2.5833958319372555e-15  2.8261976541412545e-06  2.4421085922554078e-04  4.0976530430389471e-03  5.0426793275527931e-02  4.9748204794128753e-01  3.4376843622518365e+00  5.1794801770826127e-01  5.3904761512091594e-02  4.5171872329285304e-03  2.8204555729479123e-04  5.3863311932871234e-06  -2.0248615533637706e-06  -4.4878127383659182e-07  -6.4196662552019227e-08  -7.4009479385432139e-09  -7.0996324208494736e-10  -5.3508963555100902e-11  -2.2245418988901946e-12  1.9356016478760941e-13  6.5771496295998411e-14  2.1590786824521283e-14  4.9878052202215585e-05  2.6697770630330697e-04  2.3946524983333396e-03  1.8830802376938158e-02  1.2147122878254782e-01  5.1794801374459465e-01  -1.5201929359287106e-01  -4.6417349088780757e-02  -7.8767172389802957e-03  -1.0583528118783124e-03  -1.2204997837256903e-04  -1.2262604928407893e-05  -1.0436159327714584e-06  -6.6594809122862980e-08  -1.1967470469590032e-09  5.3253927123228886e-10  1.1948146852985396e-10  1.7482967255395879e-11  2.0688940198964160e-12  2.0846652398637539e-13  3.2808694764182038e-14  2.4819864025226424e-05  9.8303788713971518e-05  6.8272496459378625e-04  4.0849318468355435e-03  1.9254506578730207e-02  5.3904761599560584e-02  -4.6417348849353564e-02  -3.9780424683395283e-04  1.9505503524085263e-03  5.6490022050206899e-04  1.0857369666044388e-04  1.7019947099039989e-05  2.3223032715465322e-06  2.8265483090781900e-07  3.0812282262918506e-08  2.9621538933290168e-09  2.3817488534570945e-10  1.3166158772789271e-11  -1.6993308173708791e-13  -1.9398943848968623e-13  -7.4151843463631787e-14  7.7946030618697003e-06  2.5108506117977661e-05  1.4470744182600050e-04  6.9340447661241382e-04  2.4895861815429367e-03  4.5171875635009297e-03  -7.8767171835414079e-03  1.9505503443932265e-03  4.4388294659071162e-04  -7.2717951904491986e-06  -2.2371655641807342e-05  -6.9005179798668327e-06  -1.4664751892306616e-06  -2.5638966082068368e-07  -3.9219445827103441e-08  -5.3953299417138810e-09  -6.7543629663793314e-10  -7.7040933311238895e-11  -7.9263052430247495e-12  -7.2638890131185743e-13  -1.0402058684478722e-13  1.9196634216933483e-06  5.1859421796010008e-06  2.5647613522001679e-05  1.0075684970221184e-04  2.7857132271205426e-04  2.8204557199780305e-04  -1.0583528240353812e-03  5.6490021512892890e-04  -7.2717953124545106e-06  -2.7848235995692228e-05  -5.0042775090844095e-06  2.9124335892349843e-08  2.4870229869174425e-07  8.4299264021875364e-08  1.9546806590648492e-08  3.7259997520436701e-09  6.2214387688400836e-10  9.3735985978133455e-11  1.2941627308624482e-11  1.6770729336859856e-12  3.9170514753741534e-13  4.0225777017985862e-07  9.2258585660089661e-07  4.0002032672731888e-06  1.2989419195050758e-05  2.7133318320434142e-05  5.3863032671779918e-06  -1.2204998385035539e-04  1.0857369645949162e-04  -2.2371655493806552e-05  -5.0042774617652976e-06  5.5712359336895428e-07  3.5860543957817832e-07  6.4047271975854676e-08  1.4323614364214301e-09  -2.6638826419702572e-09  -1.0202701022924730e-09  -2.5693114296516304e-10  -5.2767418797361435e-11  -9.4783975086192234e-12  -1.5653988750103508e-12  -4.6383936190913112e-13  7.4740341143812112e-08  1.4588562318282269e-07  5.6341224701739450e-07  1.5040208277572716e-06  2.2116808253255331e-06  -2.0248696964088497e-06  -1.2262606096539689e-05  1.7019949166657510e-05  -6.9005189960545092e-06  2.9124583454383192e-08  3.5860548846630386e-07  4.5109562303948811e-08  -9.2889831183212210e-09  -4.6229842609114116e-09  -8.7178948074766902e-10  -4.7841894957484191e-11  2.6785846232241001e-11  1.2128475238970532e-11  3.3256542527067233e-12  7.4613193520365502e-13  2.8392898450218008e-13  1.2610943508904066e-08  2.0831135881716455e-08  7.2621315494143712e-08  1.5568385711183190e-07  1.2805997089970841e-07  -4.4878168704412084e-07  -1.0436226574536960e-06  2.3223165274255677e-06  -1.4664853666735736e-06  2.4870561253214408e-07  6.4047361114609319e-08  -9.2892461948714376e-09  -4.6852114393752520e-09  -4.6373038346169725e-10  1.2755887073057241e-10  5.9897214608849213e-11  1.2154852843455067e-11  1.0433511624227623e-12  -2.3916209853198419e-13  -1.4364721601441760e-13  -8.5861913684715011e-14  1.9609240414620323e-09  2.7000463710299347e-09  8.6130939551518514e-09  1.4012351861985055e-08  -3.5438018754493036e-11  -6.4207814480725491e-08  -6.6625770264056595e-08  2.8274512433503267e-07  -2.5647793969167241e-07  8.4337255657503497e-08  1.4289876862400678e-09  -4.6253456792765062e-09  -4.6350391856168051e-10  1.7608417433791736e-10  6.0394518337032668e-11  5.5230256963199196e-12  -1.6138389852015871e-12  -7.7541913054630583e-13  -1.7022495541685147e-13  -1.9581334674578465e-14  3.3555664261978341e-15  2.8483198483231176e-10  3.1586487602096647e-10  9.4915926400425651e-10  1.0245406361744156e-09  -1.4865831045044162e-09  -7.5171281903676736e-09  -1.2639095295455801e-09  3.1373776520187082e-08  -3.9938906102581369e-08  1.9941469630664512e-08  -2.7369424347119348e-09  -8.8749586396652206e-10  1.3250807740475600e-10  6.1651470247424285e-11  2.5989098667198766e-12  -2.7681057397067026e-12  -8.0422084770435586e-13  -7.2270636201394312e-14  2.0559672096642130e-14  1.0510767001432179e-14  4.8161019431859496e-15  8.7541744979236456e-11  6.7025661709889229e-11  1.8828100969337422e-10  7.4120032013422948e-11  -5.9092008815058416e-10  -1.4360478981739984e-09  1.0679428873260971e-09  6.0053333237801508e-09  -1.0929492901729011e-08  7.5540004264304301e-09  -2.0751838200869581e-09  -9.3403924489177940e-11  1.2127748167355160e-10  1.0973552030416954e-11  -5.4155563517239764e-12  -1.4908647702722346e-12  -1.5280959130549169e-14  7.6106914843995862e-14  2.1206906423695145e-14  2.1885838577121577e-15  -8.0667570855645614e-16  -4.0772584911072653e-09  7.5117690832992174e-09  -1.0737446987212847e-08  5.5465295107454307e-09  1.1982275083908012e-09  -1.3145831769003325e-09  -5.9057186245740230e-10  5.1917204619539365e-11  1.5659303072200186e-10  9.2007882502807286e-11  3.6653744709676078e-11  1.1738647172134470e-11  3.2331568445795660e-12  7.9392149694940311e-13  1.7771779482101382e-13  3.6812014422091829e-14  7.1313574271354083e-15  1.3022007782599846e-15  2.2551460153201156e-16  3.6764240583899526e-17  1.3303074447565835e-17  -6.7403427787413470e-09  2.1292651234367080e-08  -4.0650492766854391e-08  3.0342634114802675e-08  -3.6335731471450193e-10  -7.2247376150659576e-09  -1.6175168389886859e-09  9.0451615071848630e-10  8.5640386388670000e-10  3.9775824410832610e-10  1.3684270952609894e-10  3.9004518802096314e-11  9.6996952179972008e-12  2.1674695344648182e-12  4.4345308991129576e-13  8.4132461805519435e-14  1.4933663965190931e-14  2.4956283804355252e-15  3.9427822541958949e-16  5.7924156769619896e-17  1.7020377510359513e-17  -1.8891753688805204e-09  9.5518653657506951e-08  -2.6569476688964593e-07  2.7823541504637302e-07  -5.7534256069820932e-08  -6.3299144789791013e-08  -1.9329216125938232e-09  1.2858467021407894e-08  8.0408071072592233e-09  3.1360924514173525e-09  9.5627542850894412e-10  2.4740673152833503e-10  5.6629947013597716e-11  1.1759602603722190e-11  2.2522314613268002e-12  4.0241640273218742e-13  6.7630366756697009e-14  1.0754817772924197e-14  1.6251050073560952e-15  2.3257061509680229e-16  6.4725145881055516e-17  1.2084676773311432e-07  3.1391838441334542e-07  -1.5556507604220444e-06  2.3232999869026390e-06  -9.6336511549788315e-07  -4.5881708139568887e-07  1.0612211661567213e-07  1.4588089498538399e-07  6.9243363325110264e-08  2.3007728607168876e-08  6.1988209337417086e-09  1.4422948423000657e-09  2.9996388011141883e-10  5.6962329447512166e-11  1.0016314777131534e-11  1.6466270911386540e-12  2.5474434492668958e-13  3.7248737825136231e-14  5.1596180230212722e-15  6.7699056341607161e-16  1.6937082848697743e-16  7.7009405740714659e-07  2.8420513232483523e-07  -7.5981975234912079e-06  1.7347104030505078e-05  -1.1664290659380305e-05  -2.2832546506700702e-06  1.9947020952544642e-06  1.4301824447534061e-06  5.4508536807291339e-07  1.5567877161091311e-07  3.7041505777871118e-08  7.7223923553397236e-09  1.4517733117466404e-09  2.5056619377025690e-10  4.0170748262551334e-11  6.0282448308160803e-12  8.5077333710826670e-13  1.1317654377161624e-13  1.4187468596542963e-14  1.6792436278629557e-15  3.6931906888814387e-16  1.5588870787558026e-06  -4.6717513385518049e-06  -2.6706903049371868e-05  1.1337992957027186e-04  -1.1863334124811653e-04  1.7252886045889189e-06  2.5244843329584942e-05  1.2502566035725554e-05  3.9148246156723979e-06  9.6196369240975184e-07  2.0119673080074805e-07  3.7321797449592005e-08  6.2880632102665994e-09  9.7640246816745528e-10  1.4098949237865305e-10  1.9024852180044664e-11  2.4024500030132705e-12  2.8325747315157354e-13  3.0949776857276356e-14  3.1178690954946486e-15  5.4312385718759396e-16  -9.3112085839141851e-06  -3.1326680995278673e-05  -2.5974233958027582e-05  6.1276718041733847e-04  -1.0504843686007601e-03  2.4051725976724262e-04  2.6419082822420409e-04  9.8092212290193829e-05  2.5367352867321981e-05  5.3304474628810145e-06  9.7055699391316084e-07  1.5830368340676341e-07  2.3567733006635584e-08  3.2361956582380906e-09  4.1175327838032570e-10  4.8507783491488136e-11  5.2525845624066878e-12  5.1311899908758613e-13  4.3231391701499013e-14  2.8063536658262049e-15  7.9290247832499801e-17  -5.2586115496991658e-05  -2.7308192750426185e-05  4.2311148671768487e-04  2.3030502009084332e-03  -8.0242260264572016e-03  4.1131813780734654e-03  2.3982864720807746e-03  6.8330156280823316e-04  1.4477418061927116e-04  2.5645130617403147e-05  3.9947949133993362e-06  5.6109302217236814e-07  7.1910413210061884e-08  8.4324451108158483e-09  8.9869823655505179e-10  8.5176329225078563e-11  6.7710758146095100e-12  3.6559003980113037e-13  -6.8618800275656393e-15  -5.8244739603987154e-15  -2.2374918074318109e-15  2.2432052256162428e-04  6.2466983821685086e-04  2.3041854638494526e-03  1.1311573087475092e-03  -4.9330285926382882e-02  5.0597309106244118e-02  1.8852376982780365e-02  4.0854833122079669e-03  6.9305060671899770e-04  1.0065278574550275e-04  1.2969493794779415e-05  1.5009602253000673e-06  1.5530898148367812e-07  1.3981131929976918e-08  1.0048554751178199e-09  3.7901096606105659e-11  -4.2788988553299266e-12  -1.3162171821744529e-12  -2.1450378944716596e-13  -2.7813643086238325e-14  -5.9731618606018053e-15  -2.3485247709056098e-04  -1.0681509527301505e-03  -8.0266092019219120e-03  -4.9330585152870005e-02  -1.8004415070528490e-01  4.9939775983668599e-01  1.2156995885596343e-01  1.9244516184724964e-02  2.4863044723779431e-03  2.7801847209717536e-04  2.7059102191952586e-05  2.2030925050255325e-06  1.2719291706364318e-07  -1.1538809858338014e-10  -1.4909772535475399e-09  -2.9398129753459305e-10  -4.0874054181477453e-11  -4.6601924980462466e-12  -4.4346058325988965e-13  -3.3592381113253850e-14  -2.5443485351087736e-15  3.1597497887366719e-06  2.4586277843169986e-04  4.1145584142655445e-03  5.0597563464208489e-02  4.9939780318687232e-01  3.4618695452516852e+00  5.1843904277487340e-01  5.3820451908248669e-02  4.5027505041846886e-03  2.8043609137071217e-04  5.2397566777335514e-06  -2.0354920175567416e-06  -4.4922929984557230e-07  -6.4165861633824040e-08  -7.3899285691168833e-09  -7.0815842748637689e-10  -5.3281199847591517e-11  -2.2006005376291497e-12  1.9562837988185503e-13  6.5905547321982913e-14  2.1569973448315280e-14  5.0087850921302980e-05  2.6754052855004312e-04  2.3984854909100285e-03  1.8852344055803709e-02  1.2156994488668174e-01  5.1843903880256703e-01  -1.5355276444132074e-01  -4.6575566597929829e-02  -7.8855772271398412e-03  -1.0582420423694355e-03  -1.2192820984423643e-04  -1.2239799366856984e-05  -1.0404857872298052e-06  -6.6235665078081748e-08  -1.1616113202046006e-09  5.3534505939194794e-10  1.1962852721988166e-10  1.7479231064612331e-11  2.0664068182205021e-12  2.0800614243910617e-13  3.2624180128934130e-14  2.4876997776226937e-05  9.8401008722895380e-05  6.8315788568387530e-04  4.0854521606413846e-03  1.9244513248378718e-02  5.3820452000555873e-02  -4.6575566357497176e-02  -3.3660045476674580e-04  1.9649510366812747e-03  5.6685845840063944e-04  1.0877217393028814e-04  1.7033964852133283e-05  2.3224710174654632e-06  2.8249001931693506e-07  3.0773845295423666e-08  2.9560681378647760e-09  2.3738081591494217e-10  1.3076812200594710e-11  -1.7857508327108334e-13  -1.9468798630413498e-13  -7.4130925880478655e-14  7.8047582281203438e-06  2.5116439739639492e-05  1.4471214458497089e-04  6.9304891574596835e-04  2.4863058178074605e-03  4.5027508352815581e-03  -7.8855771718245836e-03  1.9649510285944644e-03  4.4327934463326613e-04  -7.9685933207707040e-06  -2.2537463351596710e-05  -6.9277378930057309e-06  -1.4700414651723992e-06  -2.5677015936364319e-07  -3.9250000771606295e-08  -5.3963579486333230e-09  -6.7519855903218907e-10  -7.6971077457672482e-11  -7.9140041164527205e-12  -7.2459197965668725e-13  -1.0334742233516132e-13  1.9208217940219462e-06  5.1849284272381272e-06  2.5636945253090814e-05  1.0065537428423290e-04  2.7801900275779552e-04  2.8043610557802138e-04  -1.0582420546248821e-03  5.6685845301671697e-04  -7.9685934397828209e-06  -2.7961681665021899e-05  -4.9935142725307100e-06  3.7022899249807808e-08  2.5074013992857216e-07  8.4678631208320922e-08  1.9604615287942520e-08  3.7334844834679559e-09  6.2296257897910786e-10  9.3806638788862771e-11  1.2944980264287770e-11  1.6766969467992411e-12  3.9070647626084615e-13  4.0227972841690384e-07  9.2199873797473343e-07  3.9970453640851885e-06  1.2970507828914540e-05  2.7059118130164867e-05  5.2397286077193191e-06  -1.2192821531873424e-04  1.0877217373439867e-04  -2.2537463202269355e-05  -4.9935142251503085e-06  5.6610823163896647e-07  3.5980208649673181e-07  6.3934083886084612e-08  1.3421477055241818e-09  -2.6893192372596370e-09  -1.0254897520161788e-09  -2.5781679780947448e-10  -5.2897334125397723e-11  -9.4950846040541630e-12  -1.5672547688904312e-12  -4.6330739142061555e-13  7.4710018041927957e-08  1.4573189594521244e-07  5.6277739462434130e-07  1.5011238361244306e-06  2.2030525028842329e-06  -2.0355001555266339e-06  -1.2239800522939513e-05  1.7033966920858167e-05  -6.9277389103586300e-06  3.7023147535642755e-08  3.5980213527768042e-07  4.4840839035947406e-08  -9.4009118987481161e-09  -4.6382344031648916e-09  -8.7089605122247983e-10  -4.6823411727658814e-11  2.7102489759827345e-11  1.2199191088007980e-11  3.3387323763063133e-12  7.4825458099317757e-13  2.8396190809816632e-13  1.2600716311813607e-08  2.0800224628592510e-08  7.2515828685083805e-08  1.5529485159603258e-07  1.2717864229752387e-07  -4.4922971002531989e-07  -1.0404924894177202e-06  2.3224842653446647e-06  -1.4700516498798495e-06  2.5074346133016517e-07  6.3934171154719641e-08  -9.4011753450129626e-09  -4.6937258459817245e-09  -4.5971481350055549e-10  1.2898901086144295e-10  6.0109396115159813e-11  1.2152171429030299e-11  1.0321892768428516e-12  -2.4305780207034913e-13  -1.4459934865808443e-13  -8.6030022063667130e