<?xml version="1.0"?>
<VTKFile type="UnstructuredGrid"  version="0.1"  >
<UnstructuredGrid>
<Piece  NumberOfPoints="9261" NumberOfCells="48000">
<Points>
<DataArray  type="Float64"  NumberOfComponents="3"  format="ascii">0 0 0  0.015 0 0  0.03 0 0  0.045 0 0  0.06 0 0  0.075 0 0  0.09 0 0  0.105 0 0  0.12 0 0  0.135 0 0  0.15 0 0  0.165 0 0  0.18 0 0  0.195 0 0  0.21 0 0  0.225 0 0  0.24 0 0  0.255 0 0  0.27 0 0  0.285 0 0  0.3 0 0  0 0.015 0  0.015 0.015 0  0.03 0.015 0  0.045 0.015 0  0.06 0.015 0  0.075 0.015 0  0.09 0.015 0  0.105 0.015 0  0.12 0.015 0  0.135 0.015 0  0.15 0.015 0  0.165 0.015 0  0.18 0.015 0  0.195 0.015 0  0.21 0.015 0  0.225 0.015 0  0.24 0.015 0  0.255 0.015 0  0.27 0.015 0  0.285 0.015 0  0.3 0.015 0  0 0.03 0  0.015 0.03 0  0.03 0.03 0  0.045 0.03 0  0.06 0.03 0  0.075 0.03 0  0.09 0.03 0  0.105 0.03 0  0.12 0.03 0  0.135 0.03 0  0.15 0.03 0  0.165 0.03 0  0.18 0.03 0  0.195 0.03 0  0.21 0.03 0  0.225 0.03 0  0.24 0.03 0  0.255 0.03 0  0.27 0.03 0  0.285 0.03 0  0.3 0.03 0  0 0.045 0  0.015 0.045 0  0.03 0.045 0  0.045 0.045 0  0.06 0.045 0  0.075 0.045 0  0.09 0.045 0  0.105 0.045 0  0.12 0.045 0  0.135 0.045 0  0.15 0.045 0  0.165 0.045 0  0.18 0.045 0  0.195 0.045 0  0.21 0.045 0  0.225 0.045 0  0.24 0.045 0  0.255 0.045 0  0.27 0.045 0  0.285 0.045 0  0.3 0.045 0  0 0.06 0  0.015 0.06 0  0.03 0.06 0  0.045 0.06 0  0.06 0.06 0  0.075 0.06 0  0.09 0.06 0  0.105 0.06 0  0.12 0.06 0  0.135 0.06 0  0.15 0.06 0  0.165 0.06 0  0.18 0.06 0  0.195 0.06 0  0.21 0.06 0  0.225 0.06 0  0.24 0.06 0  0.255 0.06 0  0.27 0.06 0  0.285 0.06 0  0.3 0.06 0  0 0.075 0  0.015 0.075 0  0.03 0.075 0  0.045 0.075 0  0.06 0.075 0  0.075 0.075 0  0.09 0.075 0  0.105 0.075 0  0.12 0.075 0  0.135 0.075 0  0.15 0.075 0  0.165 0.075 0  0.18 0.075 0  0.195 0.075 0  0.21 0.075 0  0.225 0.075 0  0.24 0.075 0  0.255 0.075 0  0.27 0.075 0  0.285 0.075 0  0.3 0.075 0  0 0.09 0  0.015 0.09 0  0.03 0.09 0  0.045 0.09 0  0.06 0.09 0  0.075 0.09 0  0.09 0.09 0  0.105 0.09 0  0.12 0.09 0  0.135 0.09 0  0.15 0.09 0  0.165 0.09 0  0.18 0.09 0  0.195 0.09 0  0.21 0.09 0  0.225 0.09 0  0.24 0.09 0  0.255 0.09 0  0.27 0.09 0  0.285 0.09 0  0.3 0.09 0  0 0.105 0  0.015 0.105 0  0.03 0.105 0  0.045 0.105 0  0.06 0.105 0  0.075 0.105 0  0.09 0.105 0  0.105 0.105 0  0.12 0.105 0  0.135 0.105 0  0.15 0.105 0  0.165 0.105 0  0.18 0.105 0  0.195 0.105 0  0.21 0.105 0  0.225 0.105 0  0.24 0.105 0  0.255 0.105 0  0.27 0.105 0  0.285 0.105 0  0.3 0.105 0  0 0.12 0  0.015 0.12 0  0.03 0.12 0  0.045 0.12 0  0.06 0.12 0  0.075 0.12 0  0.09 0.12 0  0.105 0.12 0  0.12 0.12 0  0.135 0.12 0  0.15 0.12 0  0.165 0.12 0  0.18 0.12 0  0.195 0.12 0  0.21 0.12 0  0.225 0.12 0  0.24 0.12 0  0.255 0.12 0  0.27 0.12 0  0.285 0.12 0  0.3 0.12 0  0 0.135 0  0.015 0.135 0  0.03 0.135 0  0.045 0.135 0  0.06 0.135 0  0.075 0.135 0  0.09 0.135 0  0.105 0.135 0  0.12 0.135 0  0.135 0.135 0  0.15 0.135 0  0.165 0.135 0  0.18 0.135 0  0.195 0.135 0  0.21 0.135 0  0.225 0.135 0  0.24 0.135 0  0.255 0.135 0  0.27 0.135 0  0.285 0.135 0  0.3 0.135 0  0 0.15 0  0.015 0.15 0  0.03 0.15 0  0.045 0.15 0  0.06 0.15 0  0.075 0.15 0  0.09 0.15 0  0.105 0.15 0  0.12 0.15 0  0.135 0.15 0  0.15 0.15 0  0.165 0.15 0  0.18 0.15 0  0.195 0.15 0  0.21 0.15 0  0.225 0.15 0  0.24 0.15 0  0.255 0.15 0  0.27 0.15 0  0.285 0.15 0  0.3 0.15 0  0 0.165 0  0.015 0.165 0  0.03 0.165 0  0.045 0.165 0  0.06 0.165 0  0.075 0.165 0  0.09 0.165 0  0.105 0.165 0  0.12 0.165 0  0.135 0.165 0  0.15 0.165 0  0.165 0.165 0  0.18 0.165 0  0.195 0.165 0  0.21 0.165 0  0.225 0.165 0  0.24 0.165 0  0.255 0.165 0  0.27 0.165 0  0.285 0.165 0  0.3 0.165 0  0 0.18 0  0.015 0.18 0  0.03 0.18 0  0.045 0.18 0  0.06 0.18 0  0.075 0.18 0  0.09 0.18 0  0.105 0.18 0  0.12 0.18 0  0.135 0.18 0  0.15 0.18 0  0.165 0.18 0  0.18 0.18 0  0.195 0.18 0  0.21 0.18 0  0.225 0.18 0  0.24 0.18 0  0.255 0.18 0  0.27 0.18 0  0.285 0.18 0  0.3 0.18 0  0 0.195 0  0.015 0.195 0  0.03 0.195 0  0.045 0.195 0  0.06 0.195 0  0.075 0.195 0  0.09 0.195 0  0.105 0.195 0  0.12 0.195 0  0.135 0.195 0  0.15 0.195 0  0.165 0.195 0  0.18 0.195 0  0.195 0.195 0  0.21 0.195 0  0.225 0.195 0  0.24 0.195 0  0.255 0.195 0  0.27 0.195 0  0.285 0.195 0  0.3 0.195 0  0 0.21 0  0.015 0.21 0  0.03 0.21 0  0.045 0.21 0  0.06 0.21 0  0.075 0.21 0  0.09 0.21 0  0.105 0.21 0  0.12 0.21 0  0.135 0.21 0  0.15 0.21 0  0.165 0.21 0  0.18 0.21 0  0.195 0.21 0  0.21 0.21 0  0.225 0.21 0  0.24 0.21 0  0.255 0.21 0  0.27 0.21 0  0.285 0.21 0  0.3 0.21 0  0 0.225 0  0.015 0.225 0  0.03 0.225 0  0.045 0.225 0  0.06 0.225 0  0.075 0.225 0  0.09 0.225 0  0.105 0.225 0  0.12 0.225 0  0.135 0.225 0  0.15 0.225 0  0.165 0.225 0  0.18 0.225 0  0.195 0.225 0  0.21 0.225 0  0.225 0.225 0  0.24 0.225 0  0.255 0.225 0  0.27 0.225 0  0.285 0.225 0  0.3 0.225 0  0 0.24 0  0.015 0.24 0  0.03 0.24 0  0.045 0.24 0  0.06 0.24 0  0.075 0.24 0  0.09 0.24 0  0.105 0.24 0  0.12 0.24 0  0.135 0.24 0  0.15 0.24 0  0.165 0.24 0  0.18 0.24 0  0.195 0.24 0  0.21 0.24 0  0.225 0.24 0  0.24 0.24 0  0.255 0.24 0  0.27 0.24 0  0.285 0.24 0  0.3 0.24 0  0 0.255 0  0.015 0.255 0  0.03 0.255 0  0.045 0.255 0  0.06 0.255 0  0.075 0.255 0  0.09 0.255 0  0.105 0.255 0  0.12 0.255 0  0.135 0.255 0  0.15 0.255 0  0.165 0.255 0  0.18 0.255 0  0.195 0.255 0  0.21 0.255 0  0.225 0.255 0  0.24 0.255 0  0.255 0.255 0  0.27 0.255 0  0.285 0.255 0  0.3 0.255 0  0 0.27 0  0.015 0.27 0  0.03 0.27 0  0.045 0.27 0  0.06 0.27 0  0.075 0.27 0  0.09 0.27 0  0.105 0.27 0  0.12 0.27 0  0.135 0.27 0  0.15 0.27 0  0.165 0.27 0  0.18 0.27 0  0.195 0.27 0  0.21 0.27 0  0.225 0.27 0  0.24 0.27 0  0.255 0.27 0  0.27 0.27 0  0.285 0.27 0  0.3 0.27 0  0 0.285 0  0.015 0.285 0  0.03 0.285 0  0.045 0.285 0  0.06 0.285 0  0.075 0.285 0  0.09 0.285 0  0.105 0.285 0  0.12 0.285 0  0.135 0.285 0  0.15 0.285 0  0.165 0.285 0  0.18 0.285 0  0.195 0.285 0  0.21 0.285 0  0.225 0.285 0  0.24 0.285 0  0.255 0.285 0  0.27 0.285 0  0.285 0.285 0  0.3 0.285 0  0 0.3 0  0.015 0.3 0  0.03 0.3 0  0.045 0.3 0  0.06 0.3 0  0.075 0.3 0  0.09 0.3 0  0.105 0.3 0  0.12 0.3 0  0.135 0.3 0  0.15 0.3 0  0.165 0.3 0  0.18 0.3 0  0.195 0.3 0  0.21 0.3 0  0.225 0.3 0  0.24 0.3 0  0.255 0.3 0  0.27 0.3 0  0.285 0.3 0  0.3 0.3 0  0 0 0.00075  0.015 0 0.00075  0.03 0 0.00075  0.045 0 0.00075  0.06 0 0.00075  0.075 0 0.00075  0.09 0 0.00075  0.105 0 0.00075  0.12 0 0.00075  0.135 0 0.00075  0.15 0 0.00075  0.165 0 0.00075  0.18 0 0.00075  0.195 0 0.00075  0.21 0 0.00075  0.225 0 0.00075  0.24 0 0.00075  0.255 0 0.00075  0.27 0 0.00075  0.285 0 0.00075  0.3 0 0.00075  0 0.015 0.00075  0.015 0.015 0.00075  0.03 0.015 0.00075  0.045 0.015 0.00075  0.06 0.015 0.00075  0.075 0.015 0.00075  0.09 0.015 0.00075  0.105 0.015 0.00075  0.12 0.015 0.00075  0.135 0.015 0.00075  0.15 0.015 0.00075  0.165 0.015 0.00075  0.18 0.015 0.00075  0.195 0.015 0.00075  0.21 0.015 0.00075  0.225 0.015 0.00075  0.24 0.015 0.00075  0.255 0.015 0.00075  0.27 0.015 0.00075  0.285 0.015 0.00075  0.3 0.015 0.00075  0 0.03 0.00075  0.015 0.03 0.00075  0.03 0.03 0.00075  0.045 0.03 0.00075  0.06 0.03 0.00075  0.075 0.03 0.00075  0.09 0.03 0.00075  0.105 0.03 0.00075  0.12 0.03 0.00075  0.135 0.03 0.00075  0.15 0.03 0.00075  0.165 0.03 0.00075  0.18 0.03 0.00075  0.195 0.03 0.00075  0.21 0.03 0.00075  0.225 0.03 0.00075  0.24 0.03 0.00075  0.255 0.03 0.00075  0.27 0.03 0.00075  0.285 0.03 0.00075  0.3 0.03 0.00075  0 0.045 0.00075  0.015 0.045 0.00075  0.03 0.045 0.00075  0.045 0.045 0.00075  0.06 0.045 0.00075  0.075 0.045 0.00075  0.09 0.045 0.00075  0.105 0.045 0.00075  0.12 0.045 0.00075  0.135 0.045 0.00075  0.15 0.045 0.00075  0.165 0.045 0.00075  0.18 0.045 0.00075  0.195 0.045 0.00075  0.21 0.045 0.00075  0.225 0.045 0.00075  0.24 0.045 0.00075  0.255 0.045 0.00075  0.27 0.045 0.00075  0.285 0.045 0.00075  0.3 0.045 0.00075  0 0.06 0.00075  0.015 0.06 0.00075  0.03 0.06 0.00075  0.045 0.06 0.00075  0.06 0.06 0.00075  0.075 0.06 0.00075  0.09 0.06 0.00075  0.105 0.06 0.00075  0.12 0.06 0.00075  0.135 0.06 0.00075  0.15 0.06 0.00075  0.165 0.06 0.00075  0.18 0.06 0.00075  0.195 0.06 0.00075  0.21 0.06 0.00075  0.225 0.06 0.00075  0.24 0.06 0.00075  0.255 0.06 0.00075  0.27 0.06 0.00075  0.285 0.06 0.00075  0.3 0.06 0.00075  0 0.075 0.00075  0.015 0.075 0.00075  0.03 0.075 0.00075  0.045 0.075 0.00075  0.06 0.075 0.00075  0.075 0.075 0.00075  0.09 0.075 0.00075  0.105 0.075 0.00075  0.12 0.075 0.00075  0.135 0.075 0.00075  0.15 0.075 0.00075  0.165 0.075 0.00075  0.18 0.075 0.00075  0.195 0.075 0.00075  0.21 0.075 0.00075  0.225 0.075 0.00075  0.24 0.075 0.00075  0.255 0.075 0.00075  0.27 0.075 0.00075  0.285 0.075 0.00075  0.3 0.075 0.00075  0 0.09 0.00075  0.015 0.09 0.00075  0.03 0.09 0.00075  0.045 0.09 0.00075  0.06 0.09 0.00075  0.075 0.09 0.00075  0.09 0.09 0.00075  0.105 0.09 0.00075  0.12 0.09 0.00075  0.135 0.09 0.00075  0.15 0.09 0.00075  0.165 0.09 0.00075  0.18 0.09 0.00075  0.195 0.09 0.00075  0.21 0.09 0.00075  0.225 0.09 0.00075  0.24 0.09 0.00075  0.255 0.09 0.00075  0.27 0.09 0.00075  0.285 0.09 0.00075  0.3 0.09 0.00075  0 0.105 0.00075  0.015 0.105 0.00075  0.03 0.105 0.00075  0.045 0.105 0.00075  0.06 0.105 0.00075  0.075 0.105 0.00075  0.09 0.105 0.00075  0.105 0.105 0.00075  0.12 0.105 0.00075  0.135 0.105 0.00075  0.15 0.105 0.00075  0.165 0.105 0.00075  0.18 0.105 0.00075  0.195 0.105 0.00075  0.21 0.105 0.00075  0.225 0.105 0.00075  0.24 0.105 0.00075  0.255 0.105 0.00075  0.27 0.105 0.00075  0.285 0.105 0.00075  0.3 0.105 0.00075  0 0.12 0.00075  0.015 0.12 0.00075  0.03 0.12 0.00075  0.045 0.12 0.00075  0.06 0.12 0.00075  0.075 0.12 0.00075  0.09 0.12 0.00075  0.105 0.12 0.00075  0.12 0.12 0.00075  0.135 0.12 0.00075  0.15 0.12 0.00075  0.165 0.12 0.00075  0.18 0.12 0.00075  0.195 0.12 0.00075  0.21 0.12 0.00075  0.225 0.12 0.00075  0.24 0.12 0.00075  0.255 0.12 0.00075  0.27 0.12 0.00075  0.285 0.12 0.00075  0.3 0.12 0.00075  0 0.135 0.00075  0.015 0.135 0.00075  0.03 0.135 0.00075  0.045 0.135 0.00075  0.06 0.135 0.00075  0.075 0.135 0.00075  0.09 0.1
[...]
<PointData  Scalars="f_338"> 
<DataArray  type="Float64"  Name="f_338"  format="ascii">9.5874261493941717e+01  9.4439629980600586e+01  9.1405542427916330e+01  8.7678697737640036e+01  8.3791015178287125e+01  7.9963793206880368e+01  7.6305417830628926e+01  7.2893641705550834e+01  6.9713563608479063e+01  6.6419744157601301e+01  6.2203363599120621e+01  5.6511650684125101e+01  4.9906813513480266e+01  4.3191076901447261e+01  3.6705327759497990e+01  3.0466388585768478e+01  2.4410826046573089e+01  1.8521436494316209e+01  1.3023784517223209e+01  8.7993415711384575e+00  7.4135071527046765e+00  9.5711265331076447e+01  9.4439289397281925e+01  9.1418000830152096e+01  8.7659062405498375e+01  8.3736024522729210e+01  7.9866879984915641e+01  7.6140485050306012e+01  7.2606269837168114e+01  6.9232025177134020e+01  6.5737497818603828e+01  6.1484199952332787e+01  5.5957848540200139e+01  4.9541000755391806e+01  4.2957436157799080e+01  3.6557112199489836e+01  3.0373347316924345e+01  2.4357861688484341e+01  1.8510017939973388e+01  1.3055066581516709e+01  8.8035497669648315e+00  7.1747589266737428e+00  9.5641496623498199e+01  9.4398622820020861e+01  9.1363038052479283e+01  8.7557195807284714e+01  8.3569687877134115e+01  7.9608238053747655e+01  7.5735513937625598e+01  7.1964073032742633e+01  6.8238333886738772e+01  6.4350266528434574e+01  5.9899467657536306e+01  5.4561507996484487e+01  4.8540173044406870e+01  4.2310918678712817e+01  3.6149980267667210e+01  3.0114216055794213e+01  2.4192361023767411e+01  1.8410379478939998e+01  1.3003139136186585e+01  8.7614637809370635e+00  7.0863080433613872e+00  9.5586425382772859e+01  9.4337108488366979e+01  9.1264815809477511e+01  8.7397178853704361e+01  8.3325943300543500e+01  7.9247778906205653e+01  7.5204884036276283e+01  7.1185939306662718e+01  6.7128802939373315e+01  6.2889963018258086e+01  5.8248046956986599e+01  5.3042335025410551e+01  4.7375878729302627e+01  4.1506265996823224e+01  3.5610685811101078e+01  2.9751899971605610e+01  2.3948927857653029e+01  1.8251125491453873e+01  1.2904691797299119e+01  8.6974216332763170e+00  7.0245885542646951e+00  9.5526738989201831e+01  9.4260802926339011e+01  9.1140950398175761e+01  8.7202980123789558e+01  8.3040381363244137e+01  7.8842585710075937e+01  7.4640636596497870e+01  7.0414552129564015e+01  6.6110168769421534e+01  6.1634637802090438e+01  5.6872076472036376e+01  5.1751313606232657e+01  4.6324387271804369e+01  4.0720020652505390e+01  3.5042314546212765e+01  2.9346081966539490e+01  2.3663635637848522e+01  1.8057336552858857e+01  1.2780685172315478e+01  8.6199340174877523e+00  6.9623690549808650e+00  9.5461919523445573e+01  9.4176447186683447e+01  9.1004997544760812e+01  8.6994328040064957e+01  8.2741610665855731e+01  7.8433445933383794e+01  7.4096928126163363e+01  6.9712516473446115e+01  6.5238851034640390e+01  6.0618007513271571e+01  5.5789518918874499e+01  5.0722151323897592e+01  4.5442182765638755e+01  4.0013786807846600e+01  3.4497828704260549e+01  2.8936950451555216e+01  2.3364977788759234e+01  1.7848791122621531e+01  1.2644626481583801e+01  8.5350487451606867e+00  6.8964391492714148e+00  9.5396663198353608e+01  9.4091320817998479e+01  9.0867754102061028e+01  8.6786132801598711e+01  8.2449534342741458e+01  7.8044952508325466e+01  7.3599488464722938e+01  6.9097539376937675e+01  6.4509459938770249e+01  5.9799304074616707e+01  5.4934441395324633e+01  4.9900252450892367e+01  4.4710289725785522e+01  3.9398099312814921e+01  3.4000362204359547e+01  2.8548436930957642e+01  2.3072719936889495e+01  1.7640051156572813e+01  1.2506233025731111e+01  8.4480372644846078e+00  6.8290958776599311e+00  9.5341613432827216e+01  9.4016236334589621e+01  9.0739958886262357e+01  8.6590111661133861e+01  8.2176843200407120e+01  7.7689895621781304e+01  7.3157494084549342e+01  6.8568205407515293e+01  6.3901178221835913e+01  5.9133686804723652e+01  5.4247139621549039e+01  4.9233986239048413e+01  4.4101574539557220e+01  3.8868696225004385e+01  3.3558341446300275e+01  2.8193137148730997e+01  2.2799014215548219e+01  1.7440891898433090e+01  1.2372363956420712e+01  8.3631231305640465e+00  6.7632654286619651e+00  9.5328800152322813e+01  9.3978719935958054e+01  9.0641595191159354e+01  8.6422173347453182e+01  8.1932520237824761e+01  7.7373809123560591e+01  7.2771681532177851e+01  6.8116531791880291e+01  6.3393251695496907e+01  5.8586941097269552e+01  5.3686334736794045e+01  4.8687131008359557e+01  4.3593589605670083e+01  3.8417006101648198e+01  3.3172385858317831e+01  2.7876153239444932e+01  2.2550246924928981e+01  1.7257147585537812e+01  1.2247444263096336e+01  8.2832626687876374e+00  6.7012162182449604e+00  9.5421183139705803e+01  9.4040505869797613e+01  9.0626457858019180e+01  8.6337292940925337e+01  8.1728884855805433e+01  7.7098500012976487e+01  7.2438901449672883e+01  6.7733087356433685e+01  6.2968409829019755e+01  5.8134526949547713e+01  5.3224178580153435e+01  4.8234701476427517e+01  4.3168741111951327e+01  3.8033532369408931e+01  3.2839278515444882e+01  2.7598156581381886e+01  2.2328940311528413e+01  1.7091747115033364e+01  1.2133963412358558e+01  8.2102457164333416e+00  6.6443755146382584e+00  9.5505016345515742e+01  9.4138643416444111e+01  9.0774974983499746e+01  8.6546681052151527e+01  8.1584129192104015e+01  7.6862049271101142e+01  7.2154083157034378e+01  6.7408817972044574e+01  6.2612869172089233e+01  5.7758643289464494e+01  5.2841212569599570e+01  4.7858817270161161e+01  4.2813207538402565e+01  3.7709283331240087e+01  3.2554272166511055e+01  2.7357467639267085e+01  2.2135247388737554e+01  1.6945656063672569e+01  1.2033005925688427e+01  8.1449511934794714e+00  6.5934690812145433e+00  9.5323627849130006e+01  9.3932030466045248e+01  9.0476438370091884e+01  8.6067096762306932e+01  8.1332595520505592e+01  7.6642254037036892e+01  7.1910254774716279e+01  6.7135619925878444e+01  6.2315691050687398e+01  5.7446028046746051e+01  5.2523270732024102e+01  4.7546203701303625e+01  4.2516051512123305e+01  3.7436301170664706e+01  3.2312280525134753e+01  2.7151312551727433e+01  2.1967988957698815e+01  1.6818617608071278e+01  1.1944721401033156e+01  8.0876212868383366e+00  6.5487209734752563e+00  9.5150188104000037e+01  9.3744119430706434e+01  9.0267568391734088e+01  8.5863303010026470e+01  8.1192511351261487e+01  7.6471672270615699e+01  7.1707550425448758e+01  6.6907305927191587e+01  6.2068231306696987e+01  5.7186559637952833e+01  5.2259696494117883e+01  4.7286730241628661e+01  4.2268556109595742e+01  3.7207767978806935e+01  3.2108445348000728e+01  2.6976545509587957e+01  2.1825331150088154e+01  1.6709687367072682e+01  1.1868692989114795e+01  8.0380944901576274e+00  6.5100323282182266e+00  9.5062203518531859e+01  9.3651624886564832e+01  9.0169592980696038e+01  8.5761324320011184e+01  8.1079432680690914e+01  7.6326674889234027e+01  7.1537595923893818e+01  6.6717460714542312e+01  6.1863400927824870e+01  5.6972346186505817e+01  5.2042284797949073e+01  4.7072519475018453e+01  4.2063736791005091e+01  3.7017946400266446e+01  3.1938385576703588e+01  2.6830049886758871e+01  2.1705208369302969e+01  1.6617595352848120e+01  1.1804203432823732e+01  7.9959831779485233e+00  6.4771199256548808e+00  9.5020142974258121e+01  9.3605859577883166e+01  9.0112122022551560e+01  8.5686274593713264e+01  8.0982068971045379e+01  7.6205622364509125e+01  7.1397416868039357e+01  6.6561562695319878e+01  6.1695647641570197e+01  5.6797207010617960e+01  5.1864636246369031e+01  4.6897380504714867e+01  4.1895986845052363e+01  3.6862071130320075e+01  3.1798289793369850e+01  2.6708950832634528e+01  2.1605574735159905e+01  1.6540977387872747e+01  1.1750419096859085e+01  7.9608047383792648e+00  6.4496157404942389e+00  9.4994717337046865e+01  9.3575886334945395e+01  9.0068704378666027e+01  8.5624776449405843e+01  8.0901431576207301e+01  7.6107278286322980e+01  7.1284025294607829e+01  6.6435725679654510e+01  6.1560481976016789e+01  5.6656260363569537e+01  5.1721730770409962e+01  4.6756433536448355e+01  4.1760820488015717e+01  3.6736237116564553e+01  3.1684933125348063e+01  2.6610717212793020e+01  2.1524541329928550e+01  1.6478518374914525e+01  1.1706533803159552e+01  7.9320936985489885e+00  6.4271237071138314e+00  9.4975834327544305e+01  9.3552963537166704e+01  9.0034338661371038e+01  8.5575671340569173e+01  8.0837456774177241e+01  7.6029745577982325e+01  7.1194749436407108e+01  6.6336789345338204e+01  6.1454348388282334e+01  5.6545683412959463e+01  5.1609651009533891e+01  4.6645856540622809e+01  4.1654686603274342e+01  3.6637299609990933e+01  3.1595656539787264e+01  2.6533194613488156e+01  2.1460443198516682e+01  1.6429077750037244e+01  1.1671976317285123e+01  7.9095313901444610e+00  6.4091297852140885e+00  9.4959329405480702e+01  9.3534945565938756e+01  9.0008524930550621e+01  8.5538736309902575e+01  8.0789234565805373e+01  7.5971286412957042e+01  7.1127453534683525e+01  6.6262282327140596e+01  6.1374493978604960e+01  5.6462536217293923e+01  5.1525391570247585e+01  4.6562709495035691e+01  4.1574832051925853e+01  3.6562787395300226e+01  3.1528326286216387e+01  2.6474608025859208e+01  2.1411928303392113e+01  1.6391987279508662e+01  1.1646908647654501e+01  7.8929890215513829e+00  6.3940818575560510e+00  9.4937673149506864e+01  9.3520861334848519e+01  8.9992678683348146e+01  8.5514474271803351e+01  8.0756137077888027e+01  7.5930637700593351e+01  7.1080543323203614e+01  6.6210353686627371e+01  6.1318867920447239e+01  5.6404639199425766e+01  5.1466728194194687e+01  4.6504812018440710e+01  4.1519202184176969e+01  3.6510836173018312e+01  3.1481316760813712e+01  2.6433657474047692e+01  2.1378336058255400e+01  1.6367939013331092e+01  1.1633380239880070e+01  7.8818719299624957e+00  6.3746903499477741e+00  9.4884007869433844e+01  9.3512267610562020e+01  8.9994284614840595e+01  8.5506326592248982e+01  8.0738573103861569e+01  7.5907089686798358e+01  7.1052930926930685e+01  6.6179720584374977e+01  6.1286054241493076e+01  5.6370492907886494e+01  5.1432132581217040e+01  4.6470664293778690e+01  4.1486381270561225e+01  3.6480172861700559e+01  3.1453604256017186e+01  2.6409887915094082e+01  2.1360662628196696e+01  1.6360953919469612e+01  1.1638349323249983e+01  7.8750025300715851e+00  6.3205519591549697e+00  9.4699342542691682e+01  9.3526658235102275e+01  9.0036646147944225e+01  8.5523872645997201e+01  8.0738401849006735e+01  7.5900420266010499e+01  7.1044011123787456e+01  6.6169675041371747e+01  6.1275280037073166e+01  5.6359281702927362e+01  5.1420774676527010e+01  4.6459454852454485e+01  4.1475618044677304e+01  3.6470184636547991e+01  3.1444930064923224e+01  2.6404017255263682e+01  2.1362155837763346e+01  1.6379948930849000e+01  1.1680528704166898e+01  7.8905038691094216e+00  6.1206723641156620e+00  9.5873809956500395e+01  9.4439766111534865e+01  9.1405655826042377e+01  8.7678724120823446e+01  8.3790982126189050e+01  7.9963713953896047e+01  7.6305269993647912e+01  7.2893362139018677e+01  6.9713083436538255e+01  6.6419150056348741e+01  6.2202948753170062e+01  5.6511468026089418e+01  4.9906686742443100e+01  4.3190950024358280e+01  3.6705223335243360e+01  3.0466318078048001e+01  2.4410800016640636e+01  1.8521503424482866e+01  1.3023995601635047e+01  8.7995087875083566e+00  7.4116134642805909e+00  9.5710300675891659e+01  9.4439485199505683e+01  9.1418168751395086e+01  8.7659133485958108e+01  8.3736043829192653e+01  7.9866880976648062e+01  7.6140474277990265e+01  7.2606238483791003e+01  6.9231975757423314e+01  6.5737517478720278e+01  6.1484444452880474e+01  5.5958230292176964e+01  4.9541260244813351e+01  4.2957534037831437e+01  3.6557135969074402e+01  3.0373354501113461e+01  2.4357885228925753e+01  1.8510118475109536e+01  1.3055318249488428e+01  8.8038238497914350e+00  7.1734950306595202e+00  9.5640546079340226e+01  9.4398818703008928e+01  9.1363212224740394e+01  8.7557267482498219e+01  8.3569706181813032e+01  7.9608240478300630e+01  7.5735511293318638e+01  7.1964066916961059e+01  6.8238335558838855e+01  6.4350326889265489e+01  5.9899659445838196e+01  5.4561771160568334e+01  4.8540348346714502e+01  4.2310979660191549e+01  3.6149992010091729e+01  3.0114220599558067e+01  2.4192384101404524e+01  1.8410477772076586e+01  1.3003386096624430e+01  8.7617387372767332e+00  7.0850096740390329e+00  9.5585469906481762e+01  9.4337307396670454e+01  9.1264993045763603e+01  8.7397250384297678e+01  8.3325960785323147e+01  7.9247781657201187e+01  7.5204883887182305e+01  7.1185939368896470e+01  6.7128809592134957e+01  6.2889995263529755e+01  5.8248126794601014e+01  5.3042435536891894e+01  4.7375940012177722e+01  4.1506281813074040e+01  3.5610685972919796e+01  2.9751902562686990e+01  2.3948950472968225e+01  1.8251222143827807e+01  1.2904934786210672e+01  8.6976930979937386e+00  7.0232912437813706e+00  9.5525770807760168e+01  9.4261004647175923e+01  9.1141129905480270e+01  8.7203051963950927e+01  8.3040398670286891e+01  7.8842588596217411e+01  7.4640636982345328e+01  7.0414552694774784e+01  6.6110171894481269e+01  6.1634648567959289e+01  5.6872099051155786e+01  5.1751338452715217e+01  4.6324398696494342e+01  4.0720020367659416e+01  3.5042312908147416e+01  2.9346085033971850e+01  2.3663658244692645e+01  1.8057431983245717e+01  1.2780924971578278e+01  8.6202019300995545e+00  6.9610830749521853e+00  9.5460936550116344e+01  9.4176651909586226e+01  9.1005179540565166e+01  8.6994400721284848e+01  8.2741628150038608e+01  7.8433448909625781e+01  7.4096928571825984e+01  6.9712516757082241e+01  6.5238852005444627e+01  6.0618010238225935e+01  5.5789523790528179e+01  5.0722155646944714e+01  4.5442183518256336e+01  4.0013785600859542e+01  3.4497828469014095e+01  2.8936954144810731e+01  2.3365000259167196e+01  1.7848885414335815e+01  1.2644863414889286e+01  8.5353134057354403e+00  6.8951676580104992e+00  9.5395666525389743e+01  9.4091529950197994e+01  9.0867939555801584e+01  8.6786206907552767e+01  8.2449552172295185e+01  7.8044955552204158e+01  7.3599488900503232e+01  6.9097539497105970e+01  6.4509460179446563e+01  5.9799304640054395e+01  5.4934442242667018e+01  4.9900252970453643e+01  4.4710289513177969e+01  3.9398098987381964e+01  3.4000362623051622e+01  2.8548440706277653e+01  2.3072742122939800e+01  1.7640144350039943e+01  1.2506467265095992e+01  8.4482989219879148e+00  6.8278396404641137e+00  9.5340606584141440e+01  9.4016453685120098e+01  9.0740151030200195e+01  8.6590189221481907e+01  8.2176861647974533e+01  7.7689898700499867e+01  7.3157494496427006e+01  6.8568205468596034e+01  6.3901178273649379e+01  5.9133686904017402e+01  5.4247139741299385e+01  4.9233986266934210e+01  4.4101574455394605e+01  3.8868696219330943e+01  3.3558341961297877e+01  2.8193140851677054e+01  2.2799036127852524e+01  1.7440984068902250e+01  1.2372595685625470e+01  8.3633820581078027e+00  6.7620241625960551e+00  9.5327786015563319e+01  9.3978953705670222e+01  9.0641809091460644e+01  8.6422269301691898e+01  8.1932540229032043e+01  7.7373811960160950e+01  7.2771681826837522e+01  6.8116531813387525e+01  6.3393251702674760e+01  5.8586941111015101e+01  5.3686334749126118e+01  4.8687131002337686e+01  4.3593589591808488e+01  3.8417006154896299e+01  3.3172386363914093e+01  2.7876156884206477e+01  2.2550268599862871e+01  1.7257238818569391e+01  1.2247673701465249e+01  8.2835191699865707e+00  6.6999890639433604e+00  9.5420180639108892e+01  9.4040783796296509e+01  9.0626778866644628e+01  8.6337572604388612e+01  8.1728910105668135e+01  7.7098500703466641e+01  7.2438901205279606e+01  6.7733087288775522e+01  6.2968409817668160e+01  5.8134526948777271e+01  5.3224178579783676e+01  4.8234701473672580e+01  4.3168741114292310e+01  3.8033532428061633e+01  3.2839279009984715e+01  2.7598160184301886e+01  2.2328961774479890e+01  1.7091837502993421e+01  1.2134190803691610e+01  8.2105001026874849e+00  6.6431612840530692e+00  9.5504107606602901e+01  9.4139058193488779e+01  9.0775815872973922e+01  8.6549295969538505e+01  8.1584191712403310e+01  7.6862040333861742e+01  7.2154081406251009e+01  6.7408817755034548e+01  6.2612869149978209e+01  5.7758643286991528e+01  5.2841212568386716e+01  4.7858817269148318e+01  4.2813207543303889e+01  3.7709283389094800e+01  3.2554272654399604e+01  2.7357471207210757e+01  2.2135268662624846e+01  1.6945745704255486e+01  1.2033231521691096e+01  8.1452037657689598e+00  6.5922664267708599e+00  9.5322633441532673e+01  9.3932359108614989e+01  9.0476817301279738e+01  8.6067304998402633e+01  8.1332439776483525e+01  7.6642236133957795e+01  7.1910253680009959e+01  6.7135619948318435e+01  6.2315691070751576e+01  5.7446028049995647e+01  5.2523270731523382e+01  4.7546203700744073e+01  4.2516051517269808e+01  3.7436301227696880e+01  3.2312281008145838e+01  2.7151316088999305e+01  2.1968010065676630e+01  1.6818706599152119e+01  1.1944945448469062e+01  8.0878723265035681e+00  6.5475285041289188e+00  9.5149122532257266e+01  9.3744353835210845e+01  9.0267763682144576e+01  8.5863346506488000e+01  8.1192492267151366e+01  7.6471679677986430e+01  7.1707552498278531e+01  6.6907306265226694e+01  6.2068231348700444e+01  5.7186559641129655e+01  5.2259696493261096e+01  4.7286730241039400e+01  4.2268556114678894e+01  3.7207768035267158e+01  3.2108445827000558e+01  2.6976549020055270e+01  2.1825352114633645e+01  1.6709775802886384e+01  1.1868915722836043e+01  8.0383442561088465e+00  6.5088486829071792e+00  9.5061123474762113e+01  9.3651843096391801e+01  9.0169780783016336e+01  8.5761391611308241e+01  8.1079448064107922e+01  7.6326681081592469e+01  7.1537596740441217e+01  6.6717460754481962e+01  6.1863400918500055e+01  5.6972346182396898e+01  5.2042284796233211e+01  4.7072519474345256e+01  4.2063736796044552e+01  3.7017946456445173e+01  3.1938386052406038e+01  2.6830053373380380e+01  2.1705229210807580e+01  1.6617683323199717e+01  1.1804425074595279e+01  7.9962319078564521e+00  6.4759438141393550e+00  9.5019062445758607e+01  9.3606083896065627e+01  9.0112319836850062e+01  8.5686352997955069e+01  8.0982088725479528e+01  7.6205626448229239e+01  7.1397417278301546e+01  6.6561562714800701e+01  6.1695647640295789e+01  5.6797207009593215e+01  5.1864636245352571e+01  4.6897380504187772e+01  4.1895986850267597e+01  3.6862071186655108e+01  3.1798290265430555e+01  2.6708954294749567e+01  2.1605595472308366e+01  1.6541064986327260e+01  1.1750639862442915e+01  7.9610526496769580e+00  6.4484459546510369e+00  9.4993635192756614e+01  9.3576114928134686e+01  9.0068906403972321e+01  8.5624857073354804e+01  8.0901451198033939e+01  7.6107281684986475e+01  7.1284025694829083e+01  6.6435725723143676e+01  6.1560481980881782e+01  5.6656260363369348e+01  5.1721730769447007e+01  4.6756433536052874e+01  4.1760820493621878e+01  3.6736237172297187e+01  3.1684933588112841e+01  2.6610720643640942e+01  2.1524561998034248e+01  1.6478605737825248e+01  1.1706753913028892e+01  7.9323409601524055e+00  6.4259590658931023e+00  9.4974749806437543e+01  9.3553194103200212e+01  9.0034542231241062e+01  8.5575752401858850e+01  8.0837476238071005e+01  7.6029748870496690e+01  7.1194749872913050e+01  6.6336789398874956e+01  6.1454348393823786e+01  5.6545683412530977e+01  5.1609651008515733e+01  4.6645856540280995e+01  4.1654686608190715e+01  3.6637299659538130e+01  3.1595656980200712e+01  2.6533198024438885e+01  2.1460463937643581e+01  1.6429165145363068e+01  1.1672195918449644e+01  7.9097779314754533e+00  6.4079688119666445e+00  9.4958244073675189e+01  9.3535177483830779e+01  9.0008729735174910e+01  8.5538817819345269e+01  8.0789254089412665e+01  7.5971289717327252e+01  7.1127453984706861e+01  6.6262282380324379e+01  6.1374493982871968e+01  5.6462536216174882e+01  5.1525391568672930e+01  4.6562709493587619e+01  4.1574832052781822e+01  3.6562787432382642e+01  3.1528326717086529e+01  2.6474611562735237e+01  2.1411949569721020e+01  1.6392075153366402e+01  1.1647127361220212e+01  7.8932340066792754e+00  6.3929215456722339e+00  9.4936593739397495e+01  9.3521094365509953e+01  8.9992885380792188e+01  8.5514556623791051e+01  8.0756156746689285e+01  7.5930640995699605e+01  7.1080543757098852e+01  6.6210353729108292e+01  6.1318867917973108e+01  5.6404639192608897e+01  5.146672818689011