<?xml version="1.0"?>
<VTKFile type="UnstructuredGrid"  version="0.1"  >
<UnstructuredGrid>
<Piece  NumberOfPoints="9261" NumberOfCells="48000">
<Points>
<DataArray  type="Float64"  NumberOfComponents="3"  format="ascii">0 0 0  0.015 0 0  0.03 0 0  0.045 0 0  0.06 0 0  0.075 0 0  0.09 0 0  0.105 0 0  0.12 0 0  0.135 0 0  0.15 0 0  0.165 0 0  0.18 0 0  0.195 0 0  0.21 0 0  0.225 0 0  0.24 0 0  0.255 0 0  0.27 0 0  0.285 0 0  0.3 0 0  0 0.015 0  0.015 0.015 0  0.03 0.015 0  0.045 0.015 0  0.06 0.015 0  0.075 0.015 0  0.09 0.015 0  0.105 0.015 0  0.12 0.015 0  0.135 0.015 0  0.15 0.015 0  0.165 0.015 0  0.18 0.015 0  0.195 0.015 0  0.21 0.015 0  0.225 0.015 0  0.24 0.015 0  0.255 0.015 0  0.27 0.015 0  0.285 0.015 0  0.3 0.015 0  0 0.03 0  0.015 0.03 0  0.03 0.03 0  0.045 0.03 0  0.06 0.03 0  0.075 0.03 0  0.09 0.03 0  0.105 0.03 0  0.12 0.03 0  0.135 0.03 0  0.15 0.03 0  0.165 0.03 0  0.18 0.03 0  0.195 0.03 0  0.21 0.03 0  0.225 0.03 0  0.24 0.03 0  0.255 0.03 0  0.27 0.03 0  0.285 0.03 0  0.3 0.03 0  0 0.045 0  0.015 0.045 0  0.03 0.045 0  0.045 0.045 0  0.06 0.045 0  0.075 0.045 0  0.09 0.045 0  0.105 0.045 0  0.12 0.045 0  0.135 0.045 0  0.15 0.045 0  0.165 0.045 0  0.18 0.045 0  0.195 0.045 0  0.21 0.045 0  0.225 0.045 0  0.24 0.045 0  0.255 0.045 0  0.27 0.045 0  0.285 0.045 0  0.3 0.045 0  0 0.06 0  0.015 0.06 0  0.03 0.06 0  0.045 0.06 0  0.06 0.06 0  0.075 0.06 0  0.09 0.06 0  0.105 0.06 0  0.12 0.06 0  0.135 0.06 0  0.15 0.06 0  0.165 0.06 0  0.18 0.06 0  0.195 0.06 0  0.21 0.06 0  0.225 0.06 0  0.24 0.06 0  0.255 0.06 0  0.27 0.06 0  0.285 0.06 0  0.3 0.06 0  0 0.075 0  0.015 0.075 0  0.03 0.075 0  0.045 0.075 0  0.06 0.075 0  0.075 0.075 0  0.09 0.075 0  0.105 0.075 0  0.12 0.075 0  0.135 0.075 0  0.15 0.075 0  0.165 0.075 0  0.18 0.075 0  0.195 0.075 0  0.21 0.075 0  0.225 0.075 0  0.24 0.075 0  0.255 0.075 0  0.27 0.075 0  0.285 0.075 0  0.3 0.075 0  0 0.09 0  0.015 0.09 0  0.03 0.09 0  0.045 0.09 0  0.06 0.09 0  0.075 0.09 0  0.09 0.09 0  0.105 0.09 0  0.12 0.09 0  0.135 0.09 0  0.15 0.09 0  0.165 0.09 0  0.18 0.09 0  0.195 0.09 0  0.21 0.09 0  0.225 0.09 0  0.24 0.09 0  0.255 0.09 0  0.27 0.09 0  0.285 0.09 0  0.3 0.09 0  0 0.105 0  0.015 0.105 0  0.03 0.105 0  0.045 0.105 0  0.06 0.105 0  0.075 0.105 0  0.09 0.105 0  0.105 0.105 0  0.12 0.105 0  0.135 0.105 0  0.15 0.105 0  0.165 0.105 0  0.18 0.105 0  0.195 0.105 0  0.21 0.105 0  0.225 0.105 0  0.24 0.105 0  0.255 0.105 0  0.27 0.105 0  0.285 0.105 0  0.3 0.105 0  0 0.12 0  0.015 0.12 0  0.03 0.12 0  0.045 0.12 0  0.06 0.12 0  0.075 0.12 0  0.09 0.12 0  0.105 0.12 0  0.12 0.12 0  0.135 0.12 0  0.15 0.12 0  0.165 0.12 0  0.18 0.12 0  0.195 0.12 0  0.21 0.12 0  0.225 0.12 0  0.24 0.12 0  0.255 0.12 0  0.27 0.12 0  0.285 0.12 0  0.3 0.12 0  0 0.135 0  0.015 0.135 0  0.03 0.135 0  0.045 0.135 0  0.06 0.135 0  0.075 0.135 0  0.09 0.135 0  0.105 0.135 0  0.12 0.135 0  0.135 0.135 0  0.15 0.135 0  0.165 0.135 0  0.18 0.135 0  0.195 0.135 0  0.21 0.135 0  0.225 0.135 0  0.24 0.135 0  0.255 0.135 0  0.27 0.135 0  0.285 0.135 0  0.3 0.135 0  0 0.15 0  0.015 0.15 0  0.03 0.15 0  0.045 0.15 0  0.06 0.15 0  0.075 0.15 0  0.09 0.15 0  0.105 0.15 0  0.12 0.15 0  0.135 0.15 0  0.15 0.15 0  0.165 0.15 0  0.18 0.15 0  0.195 0.15 0  0.21 0.15 0  0.225 0.15 0  0.24 0.15 0  0.255 0.15 0  0.27 0.15 0  0.285 0.15 0  0.3 0.15 0  0 0.165 0  0.015 0.165 0  0.03 0.165 0  0.045 0.165 0  0.06 0.165 0  0.075 0.165 0  0.09 0.165 0  0.105 0.165 0  0.12 0.165 0  0.135 0.165 0  0.15 0.165 0  0.165 0.165 0  0.18 0.165 0  0.195 0.165 0  0.21 0.165 0  0.225 0.165 0  0.24 0.165 0  0.255 0.165 0  0.27 0.165 0  0.285 0.165 0  0.3 0.165 0  0 0.18 0  0.015 0.18 0  0.03 0.18 0  0.045 0.18 0  0.06 0.18 0  0.075 0.18 0  0.09 0.18 0  0.105 0.18 0  0.12 0.18 0  0.135 0.18 0  0.15 0.18 0  0.165 0.18 0  0.18 0.18 0  0.195 0.18 0  0.21 0.18 0  0.225 0.18 0  0.24 0.18 0  0.255 0.18 0  0.27 0.18 0  0.285 0.18 0  0.3 0.18 0  0 0.195 0  0.015 0.195 0  0.03 0.195 0  0.045 0.195 0  0.06 0.195 0  0.075 0.195 0  0.09 0.195 0  0.105 0.195 0  0.12 0.195 0  0.135 0.195 0  0.15 0.195 0  0.165 0.195 0  0.18 0.195 0  0.195 0.195 0  0.21 0.195 0  0.225 0.195 0  0.24 0.195 0  0.255 0.195 0  0.27 0.195 0  0.285 0.195 0  0.3 0.195 0  0 0.21 0  0.015 0.21 0  0.03 0.21 0  0.045 0.21 0  0.06 0.21 0  0.075 0.21 0  0.09 0.21 0  0.105 0.21 0  0.12 0.21 0  0.135 0.21 0  0.15 0.21 0  0.165 0.21 0  0.18 0.21 0  0.195 0.21 0  0.21 0.21 0  0.225 0.21 0  0.24 0.21 0  0.255 0.21 0  0.27 0.21 0  0.285 0.21 0  0.3 0.21 0  0 0.225 0  0.015 0.225 0  0.03 0.225 0  0.045 0.225 0  0.06 0.225 0  0.075 0.225 0  0.09 0.225 0  0.105 0.225 0  0.12 0.225 0  0.135 0.225 0  0.15 0.225 0  0.165 0.225 0  0.18 0.225 0  0.195 0.225 0  0.21 0.225 0  0.225 0.225 0  0.24 0.225 0  0.255 0.225 0  0.27 0.225 0  0.285 0.225 0  0.3 0.225 0  0 0.24 0  0.015 0.24 0  0.03 0.24 0  0.045 0.24 0  0.06 0.24 0  0.075 0.24 0  0.09 0.24 0  0.105 0.24 0  0.12 0.24 0  0.135 0.24 0  0.15 0.24 0  0.165 0.24 0  0.18 0.24 0  0.195 0.24 0  0.21 0.24 0  0.225 0.24 0  0.24 0.24 0  0.255 0.24 0  0.27 0.24 0  0.285 0.24 0  0.3 0.24 0  0 0.255 0  0.015 0.255 0  0.03 0.255 0  0.045 0.255 0  0.06 0.255 0  0.075 0.255 0  0.09 0.255 0  0.105 0.255 0  0.12 0.255 0  0.135 0.255 0  0.15 0.255 0  0.165 0.255 0  0.18 0.255 0  0.195 0.255 0  0.21 0.255 0  0.225 0.255 0  0.24 0.255 0  0.255 0.255 0  0.27 0.255 0  0.285 0.255 0  0.3 0.255 0  0 0.27 0  0.015 0.27 0  0.03 0.27 0  0.045 0.27 0  0.06 0.27 0  0.075 0.27 0  0.09 0.27 0  0.105 0.27 0  0.12 0.27 0  0.135 0.27 0  0.15 0.27 0  0.165 0.27 0  0.18 0.27 0  0.195 0.27 0  0.21 0.27 0  0.225 0.27 0  0.24 0.27 0  0.255 0.27 0  0.27 0.27 0  0.285 0.27 0  0.3 0.27 0  0 0.285 0  0.015 0.285 0  0.03 0.285 0  0.045 0.285 0  0.06 0.285 0  0.075 0.285 0  0.09 0.285 0  0.105 0.285 0  0.12 0.285 0  0.135 0.285 0  0.15 0.285 0  0.165 0.285 0  0.18 0.285 0  0.195 0.285 0  0.21 0.285 0  0.225 0.285 0  0.24 0.285 0  0.255 0.285 0  0.27 0.285 0  0.285 0.285 0  0.3 0.285 0  0 0.3 0  0.015 0.3 0  0.03 0.3 0  0.045 0.3 0  0.06 0.3 0  0.075 0.3 0  0.09 0.3 0  0.105 0.3 0  0.12 0.3 0  0.135 0.3 0  0.15 0.3 0  0.165 0.3 0  0.18 0.3 0  0.195 0.3 0  0.21 0.3 0  0.225 0.3 0  0.24 0.3 0  0.255 0.3 0  0.27 0.3 0  0.285 0.3 0  0.3 0.3 0  0 0 0.00075  0.015 0 0.00075  0.03 0 0.00075  0.045 0 0.00075  0.06 0 0.00075  0.075 0 0.00075  0.09 0 0.00075  0.105 0 0.00075  0.12 0 0.00075  0.135 0 0.00075  0.15 0 0.00075  0.165 0 0.00075  0.18 0 0.00075  0.195 0 0.00075  0.21 0 0.00075  0.225 0 0.00075  0.24 0 0.00075  0.255 0 0.00075  0.27 0 0.00075  0.285 0 0.00075  0.3 0 0.00075  0 0.015 0.00075  0.015 0.015 0.00075  0.03 0.015 0.00075  0.045 0.015 0.00075  0.06 0.015 0.00075  0.075 0.015 0.00075  0.09 0.015 0.00075  0.105 0.015 0.00075  0.12 0.015 0.00075  0.135 0.015 0.00075  0.15 0.015 0.00075  0.165 0.015 0.00075  0.18 0.015 0.00075  0.195 0.015 0.00075  0.21 0.015 0.00075  0.225 0.015 0.00075  0.24 0.015 0.00075  0.255 0.015 0.00075  0.27 0.015 0.00075  0.285 0.015 0.00075  0.3 0.015 0.00075  0 0.03 0.00075  0.015 0.03 0.00075  0.03 0.03 0.00075  0.045 0.03 0.00075  0.06 0.03 0.00075  0.075 0.03 0.00075  0.09 0.03 0.00075  0.105 0.03 0.00075  0.12 0.03 0.00075  0.135 0.03 0.00075  0.15 0.03 0.00075  0.165 0.03 0.00075  0.18 0.03 0.00075  0.195 0.03 0.00075  0.21 0.03 0.00075  0.225 0.03 0.00075  0.24 0.03 0.00075  0.255 0.03 0.00075  0.27 0.03 0.00075  0.285 0.03 0.00075  0.3 0.03 0.00075  0 0.045 0.00075  0.015 0.045 0.00075  0.03 0.045 0.00075  0.045 0.045 0.00075  0.06 0.045 0.00075  0.075 0.045 0.00075  0.09 0.045 0.00075  0.105 0.045 0.00075  0.12 0.045 0.00075  0.135 0.045 0.00075  0.15 0.045 0.00075  0.165 0.045 0.00075  0.18 0.045 0.00075  0.195 0.045 0.00075  0.21 0.045 0.00075  0.225 0.045 0.00075  0.24 0.045 0.00075  0.255 0.045 0.00075  0.27 0.045 0.00075  0.285 0.045 0.00075  0.3 0.045 0.00075  0 0.06 0.00075  0.015 0.06 0.00075  0.03 0.06 0.00075  0.045 0.06 0.00075  0.06 0.06 0.00075  0.075 0.06 0.00075  0.09 0.06 0.00075  0.105 0.06 0.00075  0.12 0.06 0.00075  0.135 0.06 0.00075  0.15 0.06 0.00075  0.165 0.06 0.00075  0.18 0.06 0.00075  0.195 0.06 0.00075  0.21 0.06 0.00075  0.225 0.06 0.00075  0.24 0.06 0.00075  0.255 0.06 0.00075  0.27 0.06 0.00075  0.285 0.06 0.00075  0.3 0.06 0.00075  0 0.075 0.00075  0.015 0.075 0.00075  0.03 0.075 0.00075  0.045 0.075 0.00075  0.06 0.075 0.00075  0.075 0.075 0.00075  0.09 0.075 0.00075  0.105 0.075 0.00075  0.12 0.075 0.00075  0.135 0.075 0.00075  0.15 0.075 0.00075  0.165 0.075 0.00075  0.18 0.075 0.00075  0.195 0.075 0.00075  0.21 0.075 0.00075  0.225 0.075 0.00075  0.24 0.075 0.00075  0.255 0.075 0.00075  0.27 0.075 0.00075  0.285 0.075 0.00075  0.3 0.075 0.00075  0 0.09 0.00075  0.015 0.09 0.00075  0.03 0.09 0.00075  0.045 0.09 0.00075  0.06 0.09 0.00075  0.075 0.09 0.00075  0.09 0.09 0.00075  0.105 0.09 0.00075  0.12 0.09 0.00075  0.135 0.09 0.00075  0.15 0.09 0.00075  0.165 0.09 0.00075  0.18 0.09 0.00075  0.195 0.09 0.00075  0.21 0.09 0.00075  0.225 0.09 0.00075  0.24 0.09 0.00075  0.255 0.09 0.00075  0.27 0.09 0.00075  0.285 0.09 0.00075  0.3 0.09 0.00075  0 0.105 0.00075  0.015 0.105 0.00075  0.03 0.105 0.00075  0.045 0.105 0.00075  0.06 0.105 0.00075  0.075 0.105 0.00075  0.09 0.105 0.00075  0.105 0.105 0.00075  0.12 0.105 0.00075  0.135 0.105 0.00075  0.15 0.105 0.00075  0.165 0.105 0.00075  0.18 0.105 0.00075  0.195 0.105 0.00075  0.21 0.105 0.00075  0.225 0.105 0.00075  0.24 0.105 0.00075  0.255 0.105 0.00075  0.27 0.105 0.00075  0.285 0.105 0.00075  0.3 0.105 0.00075  0 0.12 0.00075  0.015 0.12 0.00075  0.03 0.12 0.00075  0.045 0.12 0.00075  0.06 0.12 0.00075  0.075 0.12 0.00075  0.09 0.12 0.00075  0.105 0.12 0.00075  0.12 0.12 0.00075  0.135 0.12 0.00075  0.15 0.12 0.00075  0.165 0.12 0.00075  0.18 0.12 0.00075  0.195 0.12 0.00075  0.21 0.12 0.00075  0.225 0.12 0.00075  0.24 0.12 0.00075  0.255 0.12 0.00075  0.27 0.12 0.00075  0.285 0.12 0.00075  0.3 0.12 0.00075  0 0.135 0.00075  0.015 0.135 0.00075  0.03 0.135 0.00075  0.045 0.135 0.00075  0.06 0.135 0.00075  0.075 0.135 0.00075  0.09 0.1
[...]
<PointData  Scalars="f_338"> 
<DataArray  type="Float64"  Name="f_338"  format="ascii">8.9923720591011374e+01  8.9306257952187636e+01  8.7756289645613663e+01  8.5394404356093474e+01  8.2405687606786515e+01  7.8970774177150545e+01  7.5222617471770462e+01  7.1228899958093095e+01  6.6998452539738793e+01  6.2505189037842989e+01  5.7719785467289860e+01  5.2638410088198562e+01  4.7300559152410734e+01  4.1794612052814401e+01  3.6256657246950688e+01  3.0870025533861035e+01  2.5867292911042885e+01  2.1527177440599310e+01  1.8154449583238414e+01  1.6039690495461816e+01  1.5424629232925648e+01  8.9819260684619096e+01  8.9267558481754492e+01  8.7732066123389558e+01  8.5366545322664166e+01  8.2364581803399091e+01  7.8910690606020736e+01  7.5141245707378360e+01  7.1127470225105128e+01  6.6881577481541385e+01  6.2380095545550105e+01  5.7594915557757581e+01  5.2521777566963763e+01  4.7198457534270986e+01  4.1711027217865919e+01  3.6193222501732933e+01  3.0826031609862817e+01  2.5839407854102280e+01  2.1508865746540430e+01  1.8134601228320502e+01  1.5995925940944177e+01  1.5287230073999286e+01  8.9726039485283891e+01  8.9186853891584406e+01  8.7649063843179960e+01  8.5264307345354240e+01  8.2228853940621548e+01  7.8730900357442806e+01  7.4911689216887325e+01  7.0848713665920656e+01  6.6561413470949390e+01  6.2033202335118737e+01  5.7240711732751315e+01  5.2180828987695001e+01  4.6888613332460707e+01  4.1444588382173130e+01  3.5975778912378267e+01  3.0656692577953038e+01  2.5711667752834359e+01  2.1411476954701534e+01  1.8052210521031409e+01  1.5909843770017661e+01  1.5181540315751922e+01  8.9618598568132256e+01  8.9076878014084613e+01  8.7522702331638513e+01  8.5104443354748668e+01  8.2019104297415225e+01  7.8458099571853651e+01  7.4568203905759731e+01  7.0434818935897454e+01  6.6087076302722465e+01  6.1518142854780329e+01  5.6711916083186075e+01  5.1667775467054049e+01  4.6417686436825797e+01  4.1034601010950446e+01  3.5635857494270887e+01  3.0386529925035315e+01  2.5503220304467295e+01  2.1251100283782716e+01  1.7922833063599210e+01  1.5793716203803775e+01  1.5065369346449071e+01  8.9496613359409821e+01  8.8947235917629271e+01  8.7368469630706159e+01  8.4907466900609492e+01  8.1762221979005133e+01  7.8127442060752941e+01  7.4155731229978429e+01  6.9941008814377739e+01  6.5523021909410446e+01  6.0905837147963780e+01  5.6081762259100941e+01  5.1053471606957714e+01  4.5849975362783368e+01  4.0536011183566529e+01  3.5218001593793488e+01  3.0050203363391237e+01  2.5240389468220449e+01  2.1047585867622434e+01  1.7760972596810294e+01  1.5654990372327218e+01  1.4933111292597360e+01  8.9367335558253245e+01  8.8808455618409198e+01  8.7201527049807638e+01  8.4693947106631384e+01  8.1485443357669951e+01  7.7774323366054901e+01  7.3719043756030914e+01  6.9421826975537385e+01  6.4932658400261417e+01  6.0266130439968755e+01  5.5422796640614614e+01  5.0408790375888636e+01  4.5250596666523776e+01  4.0005228767436726e+01  3.4768533176780181e+01  2.9684063885824489e+01  2.4950690579790191e+01  2.0821123930205573e+01  1.7580710924891441e+01  1.5502222155215447e+01  1.4789161465153802e+01  8.9238919914969856e+01  8.8670210140149152e+01  8.7034823085453226e+01  8.4481263067418411e+01  8.1211635999034712e+01  7.7428110385710141e+01  7.3294772125062138e+01  6.8921381408071298e+01  6.4366934842712382e+01  5.9655158599411131e+01  5.4793752188038127e+01  4.9791915262280611e+01  4.4674069314930421e+01  3.9490620692995535e+01  3.4328190251717487e+01  2.9320835436499600e+01  2.4659281481165635e+01  2.0590304925383649e+01  1.7395180587352900e+01  1.5344419140690166e+01  1.4640630508217896e+01  8.9116759603672449e+01  8.8538777399263594e+01  8.6876755117323469e+01  8.4280801017579165e+01  8.0955825199835374e+01  7.7107970536606643e+01  7.2906559223721771e+01  6.8467876074742520e+01  6.3858360518438730e+01  5.9109068970480877e+01  5.4233329102559992e+01  4.9242680622155710e+01  4.4159773814252070e+01  3.9029541055028233e+01  3.3930900638163060e+01  2.8989919911621051e+01  2.4390183631782257e+01  2.0373710260152770e+01  1.7217562070315058e+01  1.5190868836899975e+01  1.4495241386350544e+01  8.9001680972882596e+01  8.8415482203973013e+01  8.6729726216030116e+01  8.4096398972873430e+01  8.0723432619760601e+01  7.6820911314020364e+01  7.2562927451015355e+01  6.8071284642571044e+01  6.3418381661511916e+01  5.8640940605953766e+01  5.3756552816361030e+01  4.8778502978474819e+01  4.3728042763639685e+01  3.8645730520408414e+01  3.3603991663928575e+01  2.8721389820308918e+01  2.4173854577257927e+01  2.0199739252716089e+01  1.7068605124274871e+01  1.5056776651942000e+01  1.4363256355856290e+01  8.8890620481269195e+01  8.8297405193044767e+01  8.6591003165196284e+01  8.3925384153077559e+01  8.0511529487942070e+01  7.6563287202216472e+01  7.2259008645976152e+01  6.7725100721883877e+01  6.3038669977830928e+01  5.8240778051221781e+01  5.3352301886665906e+01  4.8388085283525307e+01  4.3368865602417102e+01  3.8332766405328435e+01  3.3348385205522973e+01  2.8529355904036020e+01  2.4045195013386643e+01  2.0122636347758583e+01  1.7000930421636827e+01  1.4998293377240941e+01  1.4267798284211352e+01  8.8779687229117883e+01  8.8180510032946628e+01  8.6456197289204127e+01  8.3762654726159639e+01  8.0313760213196744e+01  7.6326800470367374e+01  7.1983807806472072e+01  6.7414916568001175e+01  6.2700816402843166e+01  5.7885716202452947e+01  5.2992809296451419e+01  4.8038061095576168e+01  4.3042008669328659e+01  3.8041524779300552e+01  3.3103642796692469e+01  2.8341318805443233e+01  2.3926635163716643e+01  2.0092387780628410e+01  1.7101761909079141e+01  1.5237854195508488e+01  1.4248535547435271e+01  8.8667707761357377e+01  8.8063369899060390e+01  8.6323477235770824e+01  8.3605699826946093e+01  8.0126527018402058e+01  7.6106264933179830e+01  7.1730033817331247e+01  6.7130901975529540e+01  6.2392173399783495e+01  5.7560158261802741e+01  5.2659387194240054e+01  4.7706140442575233e+01  4.2720062833504088e+01  3.7735842965638277e+01  3.2816950439071420e+01  2.8071062590980471e+01  2.3662380403836544e+01  1.9810924468908560e+01  1.6770048817367780e+01  1.4766452531901395e+01  1.3974696385108132e+01  8.8557693107539137e+01  8.7948834103324415e+01  8.6195540814264490e+01  8.3457008902475835e+01  7.9951996129006986e+01  7.5903402834332780e+01  7.1498929156294494e+01  6.6873985737783087e+01  6.2113846005333912e+01  5.7266304743692544e+01  5.2356767173252408e+01  4.7401656460564531e+01  4.2419959239063957e+01  3.7444927528596935e+01  3.2537948781664063e+01  2.7804271622016280e+01  2.3405991339922835e+01  1.9563436257397424e+01  1.6535508065543603e+01  1.4577313002106669e+01  1.3889788636923249e+01  8.8455325561954595e+01  8.7842587304084546e+01  8.6078136066205573e+01  8.3322426226538894e+01  7.9796126299954039e+01  7.5724337818757064e+01  7.1296935076220606e+01  6.6651264689388171e+01  6.1874190540192807e+01  5.7014701038743311e+01  5.2098963389386412e+01  4.7143709035143644e+01  4.2167792510314989e+01  3.7203965155191042e+01  3.2312883989481136e+01  2.7599043658349380e+01  2.3224043126473774e+01  1.9408223885615175e+01  1.6410970478357680e+01  1.4486468946743530e+01  1.3825659330954945e+01  8.8365941248851570e+01  8.7750071066573085e+01  8.5976794055258708e+01  8.3207511723426933e+01  7.9664426117358190e+01  7.5574469155210849e+01  7.1129343110060304e+01  6.6468009710620677e+01  6.1678636933976598e+01  5.6811182279944290e+01  5.1892450592617813e+01  4.6939487227263591e+01  4.1971146266806720e+01  3.7019874419414030e+01  3.2145719045020208e+01  2.7452229672089739e+01  2.3099649850068527e+01  1.9306424751023503e+01  1.6329314688796757e+01  1.4419024523177486e+01  1.3763994584552014e+01  8.8292209688993822e+01  8.7674097814132082e+01  8.5894388034021546e+01  8.3114987382835182e+01  7.9559207369422069e+01  7.5455464360550920e+01  7.0996996708948231e+01  6.6324111971855913e+01  6.1526025852691561e+01  5.6653433504193735e+01  5.1733591626037288e+01  4.6783732893939849e+01  4.1822636998326310e+01  3.6882392858442742e+01  3.2022357008884882e+01  2.7344989108339046e+01  2.3009008729817850e+01  1.9230984373965597e+01  1.6265734170639000e+01  1.4362501633611561e+01  1.3709544263585698e+01  8.8233489918797801e+01  8.7614279430341853e+01  8.5830746981363177e+01  8.3044551969463896e+01  7.9479628601022682e+01  7.5365608905634389e+01  7.0897086271209389e+01  6.6215538142435634e+01  6.1411035595979740e+01  5.6534820414538736e+01  5.1614442220616944e+01  4.6667219679381077e+01  4.1711826030172190e+01  3.6780026365974855e+01  3.1930574636006536e+01  2.7264979919708011e+01  2.2940660714553488e+01  1.9172704628110310e+01  1.6214674125719959e+01  1.4315312332704618e+01  1.3663371920562067e+01  8.8186212069783892e+01  8.7567795546928934e+01  8.5783817660018229e+01  8.2994319240437306e+01  7.9423394886818713e+01  7.5301832169596395e+01  7.0825598278878431e+01  6.6137308228900565e+01  6.1327789567316948e+01  5.6448704096035833e+01  5.1527790510602330e+01  4.6582410228197858e+01  4.1631163498736576e+01  3.6705593869058802e+01  3.1863992791940824e+01  2.7207050678760822e+01  2.2890970433069906e+01  1.9129406321926691e+01  1.6174785472790020e+01  1.4275840091531375e+01  1.3623179399392713e+01  8.8143633635325500e+01  8.7530531576065101e+01  8.5751384127266178e+01  8.2962598219826575e+01  7.9388521668864726e+01  7.5261507643027443e+01  7.0779193289904512e+01  6.6085449432387065e+01  6.1271837961810952e+01  5.6390352805754063e+01  5.1468841835749764e+01  4.6524686202638804e+01  4.1576463096368350e+01  3.6655600195402009e+01  3.1820037970753550e+01  2.7169688585336644e+01  2.2859424115383188e+01  1.9101139009700006e+01  1.6145642229329720e+01  1.4241511400742970e+01  1.3583488779573651e+01  8.8091867281847655e+01  8.7498747992303407e+01  8.5733126476458082e+01  8.2949318911473227e+01  7.9374337854475314e+01  7.5243253331338849e+01  7.0755880156540485e+01  6.6057529690893517e+01  6.1240493034161233e+01  5.6357002930658922e+01  5.1434923953199309e+01  4.6491622956148134e+01  4.1545696723609595e+01  3.6628557517639472e+01  3.1797900049787067e+01  2.7152884761410352e+01  2.2846889217517596e+01  1.9089517524249619e+01  1.6128661546733095e+01  1.4209991634692290e+01  1.3530899978327117e+01  8.7992644713382077e+01  8.7476563172148630e+01  8.5733932410498952e+01  8.2956856449936751e+01  7.9381581218719944e+01  7.5246865263243208e+01  7.0754888951605622e+01  6.6052446031361839e+01  6.1232490793577732e+01  5.6347363398510261e+01  5.1424822889836534e+01  4.6482167293278636e+01  4.1538046860051445e+01  3.6623965854634555e+01  3.1797513047921171e+01  2.7157216298080886e+01  2.2855010817549012e+01  1.9098098993061711e+01  1.6130398185080683e+01  1.4187255435514999e+01  1.3421469452248326e+01  8.9923498665943498e+01  8.9306239668671097e+01  8.7756293478117470e+01  8.5394406225579047e+01  8.2405673126141352e+01  7.8970735221454547e+01  7.5222552283080347e+01  7.1228812675187370e+01  6.6998351755852852e+01  6.2505085494392766e+01  5.7719689393662513e+01  5.2638329172691755e+01  4.7300497990583303e+01  4.1794572926379033e+01  3.6256640993121820e+01  3.0870031148276951e+01  2.5867315686944821e+01  2.1527206916778557e+01  1.8154468198800426e+01  1.6039663647726766e+01  1.5423725938918693e+01  8.9818819893927611e+01  8.9267575468428603e+01  8.7732100149392224e+01  8.5366582531348158e+01  8.2364612537621696e+01  7.8910709508775142e+01  7.5141252603655417e+01  7.1127469309271589e+01  6.6881575373680263e+01  6.2380098882380885e+01  5.7594928870199602e+01  5.2521802322573464e+01  4.7198492832264527e+01  4.1711071580490611e+01  3.6193275247561644e+01  3.0826092400623526e+01  2.5839474393727674e+01  2.1508931367979674e+01  1.8134654584255223e+01  1.5995950049529121e+01  1.5286651524099911e+01  8.9725605799700418e+01  8.9186870416072210e+01  8.7649098686493389e+01  8.5264346599133347e+01  8.2228888129893107e+01  7.8730924361518262e+01  7.4911702991841452e+01  7.0848721227878855e+01  6.6561420834417902e+01  6.2033215194841304e+01  5.7240733622446335e+01  5.2180860635811683e+01  4.6888653530828662e+01  4.1444635754566590e+01  3.5975833143808593e+01  3.0656753810394680e+01  2.5711734181786341e+01  2.1411542343486037e+01  1.8052263820299309e+01  1.5909868057653409e+01  1.5180946747870921e+01  8.9618162434060793e+01  8.9076894372727494e+01  8.7522737860395665e+01  8.5104484282617719e+01  8.2019141262066512e+01  7.8458127533225465e+01  7.4568222743020925e+01  7.0434832272406510e+01  6.6087089405188422e+01  6.1518160496119911e+01  5.6711941042444742e+01  5.1667808184746384e+01  4.6417725953018220e+01  4.1034646549462501e+01  3.5635909403622215e+01  3.0386588862015827e+01  2.5503284770445102e+01  2.1251164173404142e+01  1.7922885320447872e+01  1.5793739770589942e+01  1.5064775255552291e+01  8.9496170762318158e+01  8.8947252200491150e+01  8.7368505773200724e+01  8.4907509159140830e+01  8.1762261007459870e+01  7.8127472765242331e+01  7.4155753265615019e+01  6.9941025307434657e+01  6.5523037380246706e+01  6.0905855595468367e+01  5.6081785997713517e+01  5.1053501167113332e+01  4.5850010408254121e+01  4.0536051812970697e+01  3.5218048930139304e+01  3.0050258515022360e+01  2.5240451061942370e+01  2.1047647715562544e+01  1.7761023480356357e+01  1.5655013117038321e+01  1.4932522088143603e+01  8.9366884927231709e+01  8.8808471705067518e+01  8.7201563555832834e+01  8.4693990190602989e+01  8.1485483591834452e+01  7.7774355511781962e+01  7.3719067186367084e+01  6.9421844340383259e+01  6.4932673605910253e+01  6.0266146945914095e+01  5.5422816578365698e+01  5.0408814617166698e+01  4.5250625657304489e+01  4.0005263510693325e+01  3.4768575493046825e+01  2.9684115164573736e+01  2.4950749402552791e+01  2.0821183873418221e+01  1.7580760543322938e+01  1.5502244243746651e+01  1.4788579242153727e+01  8.9238460894501088e+01  8.8670225846948114e+01  8.7034859630788276e+01  8.4481306423405172e+01  8.1211676585440969e+01  7.7428142775545282e+01  7.3294795420345409e+01  6.8921397879872629e+01  6.4366947975240720e+01  5.9655171563169944e+01  5.4793767170693414e+01  4.9791933638724856e+01  4.4674092367850029e+01  3.9490650266183799e+01  3.4328228756615708e+01  2.9320884262843517e+01  2.4659339002034443e+01  2.0590364141910829e+01  1.7395229732378368e+01  1.5344441209437770e+01  1.4640056021692443e+01  8.9116292713012641e+01  8.8538792730672952e+01  8.6876791564229933e+01  8.4280844318123741e+01  8.0955865579376706e+01  7.7108002361469971e+01  7.2906581350427473e+01  6.8467890479184234e+01  6.3858370392963089e+01  5.9109077328428192e+01  5.4233338267064916e+01  4.9242692487271441e+01  4.4159790523307890e+01  3.9029565480471270e+01  3.3930936243273180e+01  2.8989968140173140e+01  2.4390243298795312e+01  2.0373772268987306e+01  1.7217613913087668e+01  1.5190893735369141e+01  1.4494675095239659e+01  8.9001207407374011e+01  8.8415497566611606e+01  8.6729762879154393e+01  8.4096442441340798e+01  8.0723472923412871e+01  7.6820942624885603e+01  7.2562948414715081e+01  6.8071296992312497e+01  6.3418388335159023e+01  5.8640944415324704e+01  5.3756556014482314e+01  4.8778507566604297e+01  4.3728051176351315e+01  3.8645746206134980e+01  3.3604019333495884e+01  2.8721433606866270e+01  2.4173920278963919e+01  2.0199812885084864e+01  1.7068675296184267e+01  1.5056822805642177e+01  1.4362699163293458e+01  8.8890141713946846e+01  8.8297421302355573e+01  8.6591040761107649e+01  8.3925428553342471e+01  8.0511570578147328e+01  7.6563319030270534e+01  7.2259029743331354e+01  6.7725112699891369e+01  6.3038675640903726e+01  5.8240780079766651e+01  5.3352302409432077e+01  4.8388086139787937e+01  4.3368868908693010e+01  3.8332775036767302e+01  3.3348403123740098e+01  2.8529388512805522e+01  2.4045256625723926e+01  2.0122749899022523e+01  1.7001107548083819e+01  1.4998536103215917e+01  1.4267242438281114e+01  8.8779204461587398e+01  8.8180527466278264e+01  8.6456236451250518e+01  8.3762700799904337e+01  8.0313803004839286e+01  7.6326833993293576e+01  7.1983830603258681e+01  6.7414930299697218e+01  6.2700823965908299e+01  5.7885720435555847e+01  5.2992812589423117e+01  4.8038065687334054e+01  4.3042017249853608e+01  3.8041541059811706e+01  3.3103672080676823e+01  2.8341370148070805e+01  2.3926733528897444e+01  2.0092621351606052e+01  1.7102453028949544e+01  1.5240426039620580e+01  1.4247880911647103e+01  8.8667221595768680e+01  8.8063388670897425e+01  8.6323517997272475e+01  8.3605747640102436e+01  8.0126571626833993e+01  7.6106300339718686e+01  7.1730058608433396e+01  6.7130917903360015e+01  6.2392183497829670e+01  5.7560165565921153e+01  5.2659394379613168e+01  4.7706150154280074e+01  4.2720078309884961e+01  3.7735868556589665e+01  3.2816991744956567e+01  2.8071126472984865e+01  2.3662476166507194e+01  1.9811067629411362e+01  1.6770272462916367e+01  1.4766596767824680e+01  1.3973871003501563e+01  8.8557203689481028e+01  8.7948853684373816e+01  8.6195582588253401e+01  8.3457057792290399e+01  7.9952041786388932e+01  7.5903439210079185e+01  7.1498954821194602e+01  6.6874002446934867e+01  6.2113856792062066e+01  5.7266312619674693e+01  5.2356774737609697e+01  4.7401666174676784e+01  4.2419973926290787e+01  3.7444950612462762e+01  3.2537983769288871e+01  2.7804320491914751e+01  2.3406051900960048e+01  1.9563499201253876e+01  1.6535550826235404e+01  1.4577297283165434e+01  1.3889189487962003e+01  8.8454833006652805e+01  8.7842607043312427e+01  8.6078178113415660e+01  8.3322475358651644e+01  7.9796172056881261e+01  7.5724374068699703e+01  7.1296960333174752e+01  6.6651280659809004e+01  6.1874200194322398e+01  5.7014707289909566e+01  5.2098968683506847e+01  4.7143715602191271e+01  4.2167802832953825e+01  3.7203982171162622e+01  3.2312910554643992e+01  2.7599081003139503e+01  2.3224088677229673e+01  1.9408269748894948e+01  1.6411004567613379e+01  1.4486477753020646e+01  1.3825116481984564e+01  8.8365445963217496e+01  8.7750090594540978e+01  8.5976835947845018e+01  8.3207560636616279e+01  7.9664471495952739e+01  7.5574504799100325e+01  7.1129367494179959e+01  6.6468024522214435e+01  6.1678645131340851e+01  5.6811186764530532e+01  5.1892453800434431e+01  4.6939491392102923e+01  4.1971153913067930e+01  3.7019888609207484e+01  3.2145742919962935e+01  2.7452265034895291e+01  2.3099695135668515e+01  1.9306473589456182e+01  1.6329356452949931e+01  1.4419043694322504e+01  1.3763460680695937e+01  8.8291712430375767e+01  8.7674117129825888e+01  8.5894429754781427e+01  8.3115036086960927e+01  7.9559252440710935e+01  7.5455499561004444e+01  7.0997020507072548e+01  6.6324126076560177e+01  6.1526033263407548e+01  5.6653437177331959e+01  5.1733594066971342e+01  4.6783736425252698e+01  4.1822644258597244e+01  3.6882407053437426e+01  3.2022381451542223e+01  2.7345025779587314e+01  2.3009056178050663e+01  1.9231036107285323e+01  1.6265778912491957e+01  1.4362522644088790e+01  1.3709012017065973e+01  8.8232991771131921e+01  8.7614298731101073e+01  8.5830788724017182e+01  8.3044600701838959e+01  7.9479673673052588e+01  7.5365644055924477e+01  7.0897109971135109e+01  6.6215552131005694e+01  6.1411042920341359e+01  5.6534824085678309e+01  5.1614444797852570e+01  4.6667223532416564e+01  4.1711833829250359e+01  3.6780041321467493e+01  3.1930600027786710e+01  2.7265017652626117e+01  2.2940709217063034e+01  1.9172757247177557e+01  1.6214719412917372e+01  1.4315333491759040e+01  1.3662840414714761e+01  8.8185714735751446e+01  8.7567815021622849e+01  8.5783859587642993e+01  8.2994368199198092e+01  7.9423440208171513e+01  7.5301867560618206e+01  7.0825622198272598e+01  6.6137322430523639e+01  6.1327797130281176e+01  5.6448708065121892e+01  5.1527793468997793e+01  4.6582414550955711e+01  4.1631171834841183e+01  3.6705609375930834e+01  3.1864018671909957e+01  2.7207088761952626e+01  2.2891019117635732e+01  1.9129458999411426e+01  1.6174830802288735e+01  1.4275861368451441e+01  1.3622647416790750e+01  8.8143140840445582e+01  8.7530551267028628e+01  8.5751426232668464e+01  8.2962647443321146e+01  7.9388567325931888e+01  7.5261543381038777e+01  7.0779217524972154e+01  6.6085463913252710e+01  6.1271845788359258e+01  5.6390357048603946e+01  5.146884509351001