<?xml version="1.0"?>
<VTKFile type="UnstructuredGrid"  version="0.1"  >
<UnstructuredGrid>
<Piece  NumberOfPoints="9261" NumberOfCells="48000">
<Points>
<DataArray  type="Float64"  NumberOfComponents="3"  format="ascii">0 0 0  0.015 0 0  0.03 0 0  0.045 0 0  0.06 0 0  0.075 0 0  0.09 0 0  0.105 0 0  0.12 0 0  0.135 0 0  0.15 0 0  0.165 0 0  0.18 0 0  0.195 0 0  0.21 0 0  0.225 0 0  0.24 0 0  0.255 0 0  0.27 0 0  0.285 0 0  0.3 0 0  0 0.015 0  0.015 0.015 0  0.03 0.015 0  0.045 0.015 0  0.06 0.015 0  0.075 0.015 0  0.09 0.015 0  0.105 0.015 0  0.12 0.015 0  0.135 0.015 0  0.15 0.015 0  0.165 0.015 0  0.18 0.015 0  0.195 0.015 0  0.21 0.015 0  0.225 0.015 0  0.24 0.015 0  0.255 0.015 0  0.27 0.015 0  0.285 0.015 0  0.3 0.015 0  0 0.03 0  0.015 0.03 0  0.03 0.03 0  0.045 0.03 0  0.06 0.03 0  0.075 0.03 0  0.09 0.03 0  0.105 0.03 0  0.12 0.03 0  0.135 0.03 0  0.15 0.03 0  0.165 0.03 0  0.18 0.03 0  0.195 0.03 0  0.21 0.03 0  0.225 0.03 0  0.24 0.03 0  0.255 0.03 0  0.27 0.03 0  0.285 0.03 0  0.3 0.03 0  0 0.045 0  0.015 0.045 0  0.03 0.045 0  0.045 0.045 0  0.06 0.045 0  0.075 0.045 0  0.09 0.045 0  0.105 0.045 0  0.12 0.045 0  0.135 0.045 0  0.15 0.045 0  0.165 0.045 0  0.18 0.045 0  0.195 0.045 0  0.21 0.045 0  0.225 0.045 0  0.24 0.045 0  0.255 0.045 0  0.27 0.045 0  0.285 0.045 0  0.3 0.045 0  0 0.06 0  0.015 0.06 0  0.03 0.06 0  0.045 0.06 0  0.06 0.06 0  0.075 0.06 0  0.09 0.06 0  0.105 0.06 0  0.12 0.06 0  0.135 0.06 0  0.15 0.06 0  0.165 0.06 0  0.18 0.06 0  0.195 0.06 0  0.21 0.06 0  0.225 0.06 0  0.24 0.06 0  0.255 0.06 0  0.27 0.06 0  0.285 0.06 0  0.3 0.06 0  0 0.075 0  0.015 0.075 0  0.03 0.075 0  0.045 0.075 0  0.06 0.075 0  0.075 0.075 0  0.09 0.075 0  0.105 0.075 0  0.12 0.075 0  0.135 0.075 0  0.15 0.075 0  0.165 0.075 0  0.18 0.075 0  0.195 0.075 0  0.21 0.075 0  0.225 0.075 0  0.24 0.075 0  0.255 0.075 0  0.27 0.075 0  0.285 0.075 0  0.3 0.075 0  0 0.09 0  0.015 0.09 0  0.03 0.09 0  0.045 0.09 0  0.06 0.09 0  0.075 0.09 0  0.09 0.09 0  0.105 0.09 0  0.12 0.09 0  0.135 0.09 0  0.15 0.09 0  0.165 0.09 0  0.18 0.09 0  0.195 0.09 0  0.21 0.09 0  0.225 0.09 0  0.24 0.09 0  0.255 0.09 0  0.27 0.09 0  0.285 0.09 0  0.3 0.09 0  0 0.105 0  0.015 0.105 0  0.03 0.105 0  0.045 0.105 0  0.06 0.105 0  0.075 0.105 0  0.09 0.105 0  0.105 0.105 0  0.12 0.105 0  0.135 0.105 0  0.15 0.105 0  0.165 0.105 0  0.18 0.105 0  0.195 0.105 0  0.21 0.105 0  0.225 0.105 0  0.24 0.105 0  0.255 0.105 0  0.27 0.105 0  0.285 0.105 0  0.3 0.105 0  0 0.12 0  0.015 0.12 0  0.03 0.12 0  0.045 0.12 0  0.06 0.12 0  0.075 0.12 0  0.09 0.12 0  0.105 0.12 0  0.12 0.12 0  0.135 0.12 0  0.15 0.12 0  0.165 0.12 0  0.18 0.12 0  0.195 0.12 0  0.21 0.12 0  0.225 0.12 0  0.24 0.12 0  0.255 0.12 0  0.27 0.12 0  0.285 0.12 0  0.3 0.12 0  0 0.135 0  0.015 0.135 0  0.03 0.135 0  0.045 0.135 0  0.06 0.135 0  0.075 0.135 0  0.09 0.135 0  0.105 0.135 0  0.12 0.135 0  0.135 0.135 0  0.15 0.135 0  0.165 0.135 0  0.18 0.135 0  0.195 0.135 0  0.21 0.135 0  0.225 0.135 0  0.24 0.135 0  0.255 0.135 0  0.27 0.135 0  0.285 0.135 0  0.3 0.135 0  0 0.15 0  0.015 0.15 0  0.03 0.15 0  0.045 0.15 0  0.06 0.15 0  0.075 0.15 0  0.09 0.15 0  0.105 0.15 0  0.12 0.15 0  0.135 0.15 0  0.15 0.15 0  0.165 0.15 0  0.18 0.15 0  0.195 0.15 0  0.21 0.15 0  0.225 0.15 0  0.24 0.15 0  0.255 0.15 0  0.27 0.15 0  0.285 0.15 0  0.3 0.15 0  0 0.165 0  0.015 0.165 0  0.03 0.165 0  0.045 0.165 0  0.06 0.165 0  0.075 0.165 0  0.09 0.165 0  0.105 0.165 0  0.12 0.165 0  0.135 0.165 0  0.15 0.165 0  0.165 0.165 0  0.18 0.165 0  0.195 0.165 0  0.21 0.165 0  0.225 0.165 0  0.24 0.165 0  0.255 0.165 0  0.27 0.165 0  0.285 0.165 0  0.3 0.165 0  0 0.18 0  0.015 0.18 0  0.03 0.18 0  0.045 0.18 0  0.06 0.18 0  0.075 0.18 0  0.09 0.18 0  0.105 0.18 0  0.12 0.18 0  0.135 0.18 0  0.15 0.18 0  0.165 0.18 0  0.18 0.18 0  0.195 0.18 0  0.21 0.18 0  0.225 0.18 0  0.24 0.18 0  0.255 0.18 0  0.27 0.18 0  0.285 0.18 0  0.3 0.18 0  0 0.195 0  0.015 0.195 0  0.03 0.195 0  0.045 0.195 0  0.06 0.195 0  0.075 0.195 0  0.09 0.195 0  0.105 0.195 0  0.12 0.195 0  0.135 0.195 0  0.15 0.195 0  0.165 0.195 0  0.18 0.195 0  0.195 0.195 0  0.21 0.195 0  0.225 0.195 0  0.24 0.195 0  0.255 0.195 0  0.27 0.195 0  0.285 0.195 0  0.3 0.195 0  0 0.21 0  0.015 0.21 0  0.03 0.21 0  0.045 0.21 0  0.06 0.21 0  0.075 0.21 0  0.09 0.21 0  0.105 0.21 0  0.12 0.21 0  0.135 0.21 0  0.15 0.21 0  0.165 0.21 0  0.18 0.21 0  0.195 0.21 0  0.21 0.21 0  0.225 0.21 0  0.24 0.21 0  0.255 0.21 0  0.27 0.21 0  0.285 0.21 0  0.3 0.21 0  0 0.225 0  0.015 0.225 0  0.03 0.225 0  0.045 0.225 0  0.06 0.225 0  0.075 0.225 0  0.09 0.225 0  0.105 0.225 0  0.12 0.225 0  0.135 0.225 0  0.15 0.225 0  0.165 0.225 0  0.18 0.225 0  0.195 0.225 0  0.21 0.225 0  0.225 0.225 0  0.24 0.225 0  0.255 0.225 0  0.27 0.225 0  0.285 0.225 0  0.3 0.225 0  0 0.24 0  0.015 0.24 0  0.03 0.24 0  0.045 0.24 0  0.06 0.24 0  0.075 0.24 0  0.09 0.24 0  0.105 0.24 0  0.12 0.24 0  0.135 0.24 0  0.15 0.24 0  0.165 0.24 0  0.18 0.24 0  0.195 0.24 0  0.21 0.24 0  0.225 0.24 0  0.24 0.24 0  0.255 0.24 0  0.27 0.24 0  0.285 0.24 0  0.3 0.24 0  0 0.255 0  0.015 0.255 0  0.03 0.255 0  0.045 0.255 0  0.06 0.255 0  0.075 0.255 0  0.09 0.255 0  0.105 0.255 0  0.12 0.255 0  0.135 0.255 0  0.15 0.255 0  0.165 0.255 0  0.18 0.255 0  0.195 0.255 0  0.21 0.255 0  0.225 0.255 0  0.24 0.255 0  0.255 0.255 0  0.27 0.255 0  0.285 0.255 0  0.3 0.255 0  0 0.27 0  0.015 0.27 0  0.03 0.27 0  0.045 0.27 0  0.06 0.27 0  0.075 0.27 0  0.09 0.27 0  0.105 0.27 0  0.12 0.27 0  0.135 0.27 0  0.15 0.27 0  0.165 0.27 0  0.18 0.27 0  0.195 0.27 0  0.21 0.27 0  0.225 0.27 0  0.24 0.27 0  0.255 0.27 0  0.27 0.27 0  0.285 0.27 0  0.3 0.27 0  0 0.285 0  0.015 0.285 0  0.03 0.285 0  0.045 0.285 0  0.06 0.285 0  0.075 0.285 0  0.09 0.285 0  0.105 0.285 0  0.12 0.285 0  0.135 0.285 0  0.15 0.285 0  0.165 0.285 0  0.18 0.285 0  0.195 0.285 0  0.21 0.285 0  0.225 0.285 0  0.24 0.285 0  0.255 0.285 0  0.27 0.285 0  0.285 0.285 0  0.3 0.285 0  0 0.3 0  0.015 0.3 0  0.03 0.3 0  0.045 0.3 0  0.06 0.3 0  0.075 0.3 0  0.09 0.3 0  0.105 0.3 0  0.12 0.3 0  0.135 0.3 0  0.15 0.3 0  0.165 0.3 0  0.18 0.3 0  0.195 0.3 0  0.21 0.3 0  0.225 0.3 0  0.24 0.3 0  0.255 0.3 0  0.27 0.3 0  0.285 0.3 0  0.3 0.3 0  0 0 0.00075  0.015 0 0.00075  0.03 0 0.00075  0.045 0 0.00075  0.06 0 0.00075  0.075 0 0.00075  0.09 0 0.00075  0.105 0 0.00075  0.12 0 0.00075  0.135 0 0.00075  0.15 0 0.00075  0.165 0 0.00075  0.18 0 0.00075  0.195 0 0.00075  0.21 0 0.00075  0.225 0 0.00075  0.24 0 0.00075  0.255 0 0.00075  0.27 0 0.00075  0.285 0 0.00075  0.3 0 0.00075  0 0.015 0.00075  0.015 0.015 0.00075  0.03 0.015 0.00075  0.045 0.015 0.00075  0.06 0.015 0.00075  0.075 0.015 0.00075  0.09 0.015 0.00075  0.105 0.015 0.00075  0.12 0.015 0.00075  0.135 0.015 0.00075  0.15 0.015 0.00075  0.165 0.015 0.00075  0.18 0.015 0.00075  0.195 0.015 0.00075  0.21 0.015 0.00075  0.225 0.015 0.00075  0.24 0.015 0.00075  0.255 0.015 0.00075  0.27 0.015 0.00075  0.285 0.015 0.00075  0.3 0.015 0.00075  0 0.03 0.00075  0.015 0.03 0.00075  0.03 0.03 0.00075  0.045 0.03 0.00075  0.06 0.03 0.00075  0.075 0.03 0.00075  0.09 0.03 0.00075  0.105 0.03 0.00075  0.12 0.03 0.00075  0.135 0.03 0.00075  0.15 0.03 0.00075  0.165 0.03 0.00075  0.18 0.03 0.00075  0.195 0.03 0.00075  0.21 0.03 0.00075  0.225 0.03 0.00075  0.24 0.03 0.00075  0.255 0.03 0.00075  0.27 0.03 0.00075  0.285 0.03 0.00075  0.3 0.03 0.00075  0 0.045 0.00075  0.015 0.045 0.00075  0.03 0.045 0.00075  0.045 0.045 0.00075  0.06 0.045 0.00075  0.075 0.045 0.00075  0.09 0.045 0.00075  0.105 0.045 0.00075  0.12 0.045 0.00075  0.135 0.045 0.00075  0.15 0.045 0.00075  0.165 0.045 0.00075  0.18 0.045 0.00075  0.195 0.045 0.00075  0.21 0.045 0.00075  0.225 0.045 0.00075  0.24 0.045 0.00075  0.255 0.045 0.00075  0.27 0.045 0.00075  0.285 0.045 0.00075  0.3 0.045 0.00075  0 0.06 0.00075  0.015 0.06 0.00075  0.03 0.06 0.00075  0.045 0.06 0.00075  0.06 0.06 0.00075  0.075 0.06 0.00075  0.09 0.06 0.00075  0.105 0.06 0.00075  0.12 0.06 0.00075  0.135 0.06 0.00075  0.15 0.06 0.00075  0.165 0.06 0.00075  0.18 0.06 0.00075  0.195 0.06 0.00075  0.21 0.06 0.00075  0.225 0.06 0.00075  0.24 0.06 0.00075  0.255 0.06 0.00075  0.27 0.06 0.00075  0.285 0.06 0.00075  0.3 0.06 0.00075  0 0.075 0.00075  0.015 0.075 0.00075  0.03 0.075 0.00075  0.045 0.075 0.00075  0.06 0.075 0.00075  0.075 0.075 0.00075  0.09 0.075 0.00075  0.105 0.075 0.00075  0.12 0.075 0.00075  0.135 0.075 0.00075  0.15 0.075 0.00075  0.165 0.075 0.00075  0.18 0.075 0.00075  0.195 0.075 0.00075  0.21 0.075 0.00075  0.225 0.075 0.00075  0.24 0.075 0.00075  0.255 0.075 0.00075  0.27 0.075 0.00075  0.285 0.075 0.00075  0.3 0.075 0.00075  0 0.09 0.00075  0.015 0.09 0.00075  0.03 0.09 0.00075  0.045 0.09 0.00075  0.06 0.09 0.00075  0.075 0.09 0.00075  0.09 0.09 0.00075  0.105 0.09 0.00075  0.12 0.09 0.00075  0.135 0.09 0.00075  0.15 0.09 0.00075  0.165 0.09 0.00075  0.18 0.09 0.00075  0.195 0.09 0.00075  0.21 0.09 0.00075  0.225 0.09 0.00075  0.24 0.09 0.00075  0.255 0.09 0.00075  0.27 0.09 0.00075  0.285 0.09 0.00075  0.3 0.09 0.00075  0 0.105 0.00075  0.015 0.105 0.00075  0.03 0.105 0.00075  0.045 0.105 0.00075  0.06 0.105 0.00075  0.075 0.105 0.00075  0.09 0.105 0.00075  0.105 0.105 0.00075  0.12 0.105 0.00075  0.135 0.105 0.00075  0.15 0.105 0.00075  0.165 0.105 0.00075  0.18 0.105 0.00075  0.195 0.105 0.00075  0.21 0.105 0.00075  0.225 0.105 0.00075  0.24 0.105 0.00075  0.255 0.105 0.00075  0.27 0.105 0.00075  0.285 0.105 0.00075  0.3 0.105 0.00075  0 0.12 0.00075  0.015 0.12 0.00075  0.03 0.12 0.00075  0.045 0.12 0.00075  0.06 0.12 0.00075  0.075 0.12 0.00075  0.09 0.12 0.00075  0.105 0.12 0.00075  0.12 0.12 0.00075  0.135 0.12 0.00075  0.15 0.12 0.00075  0.165 0.12 0.00075  0.18 0.12 0.00075  0.195 0.12 0.00075  0.21 0.12 0.00075  0.225 0.12 0.00075  0.24 0.12 0.00075  0.255 0.12 0.00075  0.27 0.12 0.00075  0.285 0.12 0.00075  0.3 0.12 0.00075  0 0.135 0.00075  0.015 0.135 0.00075  0.03 0.135 0.00075  0.045 0.135 0.00075  0.06 0.135 0.00075  0.075 0.135 0.00075  0.09 0.1
[...]
<PointData  Scalars="f_338"> 
<DataArray  type="Float64"  Name="f_338"  format="ascii">9.0472369098694529e+01  8.9821416641862896e+01  8.8195456688884221e+01  8.5739798294134275e+01  8.2667673594851280e+01  7.9180117817675253e+01  7.5417369911558794e+01  7.1441190343092970e+01  6.7244611106329899e+01  6.2781426021659883e+01  5.8004580866897577e+01  5.2900379214635031e+01  4.7507517920591916e+01  4.1918730129086249e+01  3.6273750010171476e+01  3.0756341445051110e+01  2.5600250795710611e+01  2.1094159153852406e+01  1.7566764598683093e+01  1.5342422348272422e+01  1.4694028039282571e+01  9.0364881070074773e+01  8.9783454325131984e+01  8.8172827392949856e+01  8.5712720751623891e+01  8.2625309636850005e+01  7.9115843375324516e+01  7.5328308638263465e+01  7.1328471141622600e+01  6.7113438603474663e+01  6.2640363074710827e+01  5.7863815525392468e+01  5.2769494737779283e+01  4.7393753010037372e+01  4.1826365807162816e+01  3.6204373218811149e+01  3.0709140651515053e+01  2.5571705233089158e+01  2.1077142391565982e+01  1.7548880623423763e+01  1.5299136651658269e+01  1.4551257261845063e+01  9.0272477580251774e+01  8.9704246486430094e+01  8.8090941159469125e+01  8.5609566039554011e+01  8.2484820135373056e+01  7.8925579851202457e+01  7.5080854852524382e+01  7.1023381247672646e+01  6.6758952195003289e+01  6.2253525223498990e+01  5.7467987610284041e+01  5.2389612978893460e+01  4.7051117477340426e+01  4.1535012896815275e+01  3.5969969919742773e+01  3.0529819739593261e+01  2.5439523724620663e+01  2.0979208191269812e+01  1.7468004107631906e+01  1.5214714161165798e+01  1.4446020820651491e+01  9.0167759905648296e+01  8.9596776261956123e+01  8.7965797096048448e+01  8.5448032623387334e+01  8.2268539422450061e+01  7.8639119464283240e+01  7.4714316133167401e+01  7.0575514574201321e+01  6.6239974651357628e+01  6.1685906569250314e+01  5.6883709740539608e+01  5.1824033747552022e+01  4.6535560804061049e+01  4.1090995623528798e+01  3.5606901053040019e+01  3.0245981577801729e+01  2.5224735434134804e+01  2.0817607695573290e+01  1.7340462433591796e+01  1.5101705209785589e+01  1.4333050747114301e+01  9.0049751550263053e+01  8.9470610718802888e+01  8.7813333152139194e+01  8.5249624730519884e+01  8.2005212992298695e+01  7.8294870274325604e+01  7.4278900749230033e+01  7.0047851018215624e+01  6.5631272726384182e+01  6.1020736245606983e+01  5.6197374820710237e+01  5.1156191574953688e+01  4.5922135236150496e+01  4.0557495425833693e+01  3.5165386713199638e+01  2.9895843245271607e+01  2.4955721937235449e+01  2.0613287777549470e+01  1.7181203500836975e+01  1.4967351435282808e+01  1.4205640967790821e+01  8.9925701397329888e+01  8.9336469798330924e+01  8.7649227863520039e+01  8.5035844271967136e+01  8.1723618168912125e+01  7.7930697692367346e+01  7.3823172929701911e+01  6.9500378280106531e+01  6.5003431602131840e+01  6.0336438721902631e+01  5.5490745531555177e+01  5.0465797396436486e+01  4.5283480058375446e+01  3.9996579851375714e+01  3.4695489764914896e+01  2.9517924406511074e+01  2.4661088333028115e+01  2.0386871092040771e+01  1.7004317678854562e+01  1.4819862831532182e+01  1.4067551623265487e+01  8.9804164029953242e+01  8.9204500356656439e+01  8.7487102100205334e+01  8.4825003740783046e+01  8.1447878957398586e+01  7.7577639906004080e+01  7.3385963145592982e+01  6.8980025128818809e+01  6.4410841584333724e+01  5.9693041675057437e+01  5.4826525837820959e+01  4.9814575246378155e+01  4.4676733452519557e+01  3.9458045313166423e+01  3.4238214398482022e+01  2.9144397147995598e+01  2.4365041480226342e+01  2.0155973769680397e+01  1.6822119441935712e+01  1.4667575166291009e+01  1.3925200749864501e+01  8.9690812633494986e+01  8.9081323432117230e+01  8.7335847793257855e+01  8.4629172585743916e+01  8.1193893026612528e+01  7.7255907577617691e+01  7.2992107217682388e+01  6.8516328775958200e+01  6.3887491160844071e+01  5.9128308561391115e+01  5.4245073440636901e+01  4.9243790209936790e+01  4.4142025913450439e+01  3.8978821839536380e+01  3.3825451361350858e+01  2.8801284506898149e+01  2.4087261609763299e+01  1.9935004192671745e+01  1.6644588605972594e+01  1.4517724217994687e+01  1.3784798567406613e+01  8.9585864047568080e+01  8.8967725520819201e+01  8.7197414332269872e+01  8.4451809851644441e+01  8.0966743441117018e+01  7.6972168292058399e+01  7.2649775972937590e+01  6.8118984887345277e+01  6.3444877144330661e+01  5.8656160497889879e+01  5.3763654470011240e+01  4.8775020803420595e+01  4.3705780609909617e+01  3.8589424683792160e+01  3.3489256788505195e+01  2.8519356785551185e+01  2.3851184734780908e+01  1.9741557525339910e+01  1.6480690359892240e+01  1.4376059089682039e+01  1.3651310862730034e+01  8.9484487704731052e+01  8.8859040081338890e+01  8.7067240934857324e+01  8.4288217272828945e+01  8.0761134405849248e+01  7.6719908951958686e+01  7.2350598856426615e+01  6.7777322419628504e+01  6.3070051014308270e+01  5.8262129456701331e+01  5.3368011110073283e+01  4.8397176153034479e+01  4.3364623231047055e+01  3.8300681958254657e+01  3.3262573392263810e+01  2.8352195383255101e+01  2.3709710479508821e+01  1.9631363326047779e+01  1.6344005077298942e+01  1.4247210703824564e+01  1.3528199123186759e+01  8.9380763428796158e+01  8.8749129262510294e+01  8.6938622852127494e+01  8.4130578066762467e+01  8.0567353649931320e+01  7.6486520256275455e+01  7.2077926957858395e+01  6.7469480881785159e+01  6.2734833605335780e+01  5.7910674240778512e+01  5.3014111407276282e+01  4.8056308892798228e+01  4.3053104149740165e+01  3.8035666916326925e+01  3.3064426120182688e+01  2.8247234521291464e+01  2.3746772055733015e+01  1.9817429359404855e+01  1.6254786111637081e+01  1.4132961442563373e+01  1.3416763109822408e+01  8.9272692069190128e+01  8.8635642257711851e+01  8.6808670896066189e+01  8.3975110110570498e+01  8.0380188535284049e+01  7.6264670542073361e+01  7.1821541505816796e+01  6.7181587566485661e+01  6.2420958152698468e+01  5.7578277097409682e+01  5.2671726335200908e+01  4.7712302362176310e+01  4.2714020048132241e+01  3.7704045418259042e+01  3.2735738273029774e+01  2.7904673441337838e+01  2.3364547313978996e+01  1.9320173880498100e+01  1.6049677135078248e+01  1.4014352846962730e+01  1.3314032329429066e+01  8.9164214520226778e+01  8.8522333637362351e+01  8.6681061621972603e+01  8.3825444990186725e+01  8.0203200334882638e+01  7.6057838292332974e+01  7.1584964891452657e+01  6.6917651829416513e+01  6.2133902523101632e+01  5.7273680869200341e+01  5.2355878544411986e+01  4.7391454520047056e+01  4.2393614450940888e+01  3.7388151325879150e+01  3.2427146081778666e+01  2.7607078536169077e+01  2.3087500194773103e+01  1.9101313808560445e+01  1.5947693260757532e+01  1.3927605387587555e+01  1.3230102082734909e+01  8.9062793593303894e+01  8.8416724781207805e+01  8.6563537258825875e+01  8.3689695703019396e+01  8.0045024328117634e+01  7.5875388467752899e+01  7.1378641765620316e+01  6.6689800106016023e+01  6.1888443577767511e+01  5.7015739273497744e+01  5.2091412522310087e+01  4.7126907055115694e+01  4.2135643876057820e+01  3.7143535398037876e+01  3.2202948058664674e+01  2.7410991835037827e+01  2.2927927049779345e+01  1.8984849669908595e+01  1.5865280921654980e+01  1.3851189255741604e+01  1.3156444866348599e+01  8.8975061766532946e+01  8.8325616934208952e+01  8.6463056793592273e+01  8.3574932951165323e+01  7.9912779425741746e+01  7.5724436928914571e+01  7.1209666847302103e+01  6.6505125040402092e+01  6.1691700605822312e+01  5.6811548170510932e+01  5.1885081209391963e+01  4.6924142971377655e+01  4.1942262894703909e+01  3.6965142648179302e+01  3.2044519010372504e+01  2.7276210432113775e+01  2.2818099343674856e+01  1.8897304638809693e+01  1.5792642659905306e+01  1.3785648025941688e+01  1.3093969941231670e+01  8.8903925752948638e+01  8.8252078288771287e+01  8.6382705196279261e+01  8.3483977268323869e+01  7.9808690748218126e+01  7.5606297847211053e+01  7.1078157054802887e+01  6.6362268731440423e+01  6.1540535487505686e+01  5.6655809416178620e+01  5.1728919440599768e+01  4.6771857710047492e+01  4.1798025166640798e+01  3.6832678784784385e+01  3.1926724556257639e+01  2.7174683537137742e+01  2.2732673361234536e+01  1.8825850868136559e+01  1.5731593335801360e+01  1.3731109270763914e+01  1.3041892359888232e+01  8.8848234413057256e+01  8.8195202168831429e+01  8.6321731395011682e+01  8.3415808092743532e+01  7.9730984593569175e+01  7.5518054499981446e+01  7.0979786575299897e+01  6.6255330497075391e+01  6.1427381271534969e+01  5.6539266909563302e+01  5.1612047611271294e+01  4.6657752024985967e+01  4.1689639678736377e+01  3.6732632221630176e+01  3.1837056147605978e+01  2.7096542207716524e+01  2.2665995918030738e+01  1.8769201355827455e+01  1.5682378382362936e+01  1.3686194705530157e+01  1.2998323958632742e+01  8.8803712407040550e+01  8.8151491844664719e+01  8.6277424317230739e+01  8.3367833699907450e+01  7.9676559027188901e+01  7.5455713645183010e+01  7.0909526220071825e+01  6.6178268727620477e+01  6.1345319928398624e+01  5.6454349835202990e+01  5.1526552419177072e+01  4.6573974257980744e+01  4.1609812184602809e+01  3.6658820075107627e+01  3.1770958621247001e+01  2.7039147653009827e+01  2.2617128717016087e+01  1.8727185187849830e+01  1.5644223118175489e+01  1.3648722139182585e+01  1.2960200162828093e+01  8.8762946712148718e+01  8.8116340298801319e+01  8.6247232419943046e+01  8.3338078863416158e+01  7.9643129249931647e+01  7.5416325945633957e+01  7.0863729398443283e+01  6.6126876308671257e+01  6.1289797401964087e+01  5.6396401775109538e+01  5.1467933094429853e+01  4.6516441881562052e+01  4.1555131023006865e+01  3.6608715793491058e+01  3.1726919976990128e+01  2.7001981823309311e+01  2.2586296429612414e+01  1.8700193032649057e+01  1.5616655543442693e+01  1.3615840515104120e+01  1.2921681007335724e+01  8.8711120992655154e+01  8.8085740378397688e+01  8.6230879890259601e+01  8.3326598230955284e+01  7.9630134878092505e+01  7.5398592858130399e+01  7.0840492266161363e+01  6.6098855086144596e+01  6.1258337714533063e+01  5.6362959699224817e+01  5.1433898286951504e+01  4.6483167105928501e+01  4.1524024512130666e+01  3.6581264708843541e+01  3.1704500940078422e+01  2.6985323568695925e+01  2.2574580160159030e+01  1.8690008495564133e+01  1.5601202049117546e+01  1.3585061746028197e+01  1.2868560271360213e+01  8.8607635391101368e+01  8.8064012451130807e+01  8.6233668326019398e+01  8.3336117709779543e+01  7.9638583341117211e+01  7.5402512940642922e+01  7.0839210845893192e+01  6.6093265316177991e+01  6.1249858411332802e+01  5.6352934653837139e+01  5.1423444592253063e+01  4.6473297184513903e+01  4.1515847793168483e+01  3.6576101495748489e+01  3.1703736486363319e+01  2.6989843673614789e+01  2.2583765121592322e+01  1.8700452063743008e+01  1.5604861502108205e+01  1.3562715256336013e+01  1.2754314778125741e+01  9.0472136429497937e+01  8.9821401744784495e+01  8.8195465718077116e+01  8.5739804021984725e+01  8.2667659521115723e+01  7.9180074806969344e+01  7.5417296113662516e+01  7.1441090627611160e+01  6.7244495644787136e+01  6.2781307702270730e+01  5.8004471852554737e+01  5.2900288100252894e+01  4.7507449065118983e+01  4.1918685190113571e+01  3.6273729795418220e+01  3.0756345801404343e+01  2.5600275934059074e+01  2.1094194218377528e+01  1.7566789541314545e+01  1.5342398173666716e+01  1.4693078794240932e+01  9.0364417110792871e+01  8.9783474990365676e+01  8.8172867060668978e+01  8.5712762906038520e+01  8.2625342904031626e+01  7.9115861965991755e+01  7.5328312978864687e+01  7.1328466649689076e+01  6.7113433414413620e+01  6.2640365192290147e+01  5.7863830065727562e+01  5.2769522553566127e+01  4.7393791718692157e+01  4.1826412643471642e+01  3.6204427457131708e+01  3.0709203300567264e+01  2.5571775681130685e+01  2.1077214371850687e+01  1.7548940994025362e+01  1.5299165020970493e+01  1.4550647309462464e+01  9.0272020998450074e+01  8.9704266502007840e+01  8.8090981614103200e+01  8.5609610309049529e+01  8.2484857055930604e+01  7.8925603998055294e+01  7.5080866946361908e+01  7.1023386591153923e+01  6.6758958178193183e+01  6.2253538589889224e+01  5.7468012133578107e+01  5.2389648569646347e+01  4.7051161449760279e+01  4.1535062734784667e+01  3.5970025440245685e+01  3.0529882563049878e+01  2.5439593813912179e+01  2.0979279768842058e+01  1.7468064359097646e+01  1.5214742707514800e+01  1.4445394851404474e+01  9.0167300669900996e+01  8.9596796073841745e+01  8.7965838251465087e+01  8.5448078627482474e+01  8.2268579246558716e+01  7.8639147846288083e+01  7.4714333798887964e+01  7.0575526403668007e+01  6.6239987079852739e+01  6.1685925101419322e+01  5.6883737149387017e+01  5.1824069642463606e+01  4.6535602976631381e+01  4.1091042482019283e+01  3.5606953320337922e+01  3.0246041469849157e+01  2.5224803178425731e+01  2.0817677568908504e+01  1.7340521549542423e+01  1.5101732987834072e+01  1.4332424269793144e+01  9.0049285479156239e+01  8.9470630507102683e+01  8.7813374998563432e+01  8.5249672151902914e+01  8.2005254982259956e+01  7.8294901553950822e+01  7.4278921837443420e+01  7.0047866213386854e+01  6.5631287499887151e+01  6.1020755061722404e+01  5.6197399845555687e+01  5.1156222620484670e+01  4.5922171058400352e+01  4.0557535694716094e+01  3.5165433170174396e+01  2.9895898589074211e+01  2.4955786404203561e+01  2.0613355416656095e+01  1.7181261160134287e+01  1.4967378349343640e+01  1.4205019735558523e+01  8.9925226840433012e+01  8.9336489451884219e+01  8.7649270163271538e+01  8.5035892612829727e+01  8.1723661459074052e+01  7.7930730524292755e+01  7.3823195535799485e+01  6.9500394400249007e+01  6.5003445919626600e+01  6.0336454967310964e+01  5.5490765607832628e+01  5.0465821575437488e+01  4.5283508172281486e+01  3.9996612771487840e+01  3.4695530108950180e+01  2.9517975160437555e+01  2.4661149585452996e+01  2.0386936566527034e+01  1.7004373933482416e+01  1.4819888992122573e+01  1.4066937786729341e+01  8.9803680542496835e+01  8.9204519594976404e+01  8.7487144433160140e+01  8.4825052346784361e+01  8.1447922586192789e+01  7.7577672980052228e+01  7.3385985641727800e+01  6.8980040384302129e+01  6.4410853790491302e+01  5.9693054202025614e+01  5.4826540644144011e+01  4.9814593177887851e+01  4.4676755325035280e+01  3.9458072797902204e+01  3.4238250661425255e+01  2.9144444993419160e+01  2.4365100702924554e+01  2.0156037772996481e+01  1.6822174600615558e+01  1.4667600774016723e+01  1.3924594887979071e+01  8.9690320698288460e+01  8.9081342132892800e+01  8.7335889866959420e+01  8.4629220933352769e+01  8.1193936183545176e+01  7.7255939767032473e+01  7.2992128190807421e+01  6.8516341590575507e+01  6.3887499737281750e+01  5.9128316190327233e+01  5.4245082425573969e+01  4.9243802280392956e+01  4.4142043246863210e+01  3.8978846734640413e+01  3.3825487943054661e+01  2.8801333736437702e+01  2.4087322560149406e+01  1.9935069157351236e+01  1.6644643236482807e+01  1.4517749479692876e+01  1.3784200421529242e+01  8.9585365001612288e+01  8.8967744114241313e+01  8.7197456452000679e+01  8.4451858111699792e+01  8.0966786140389402e+01  7.6972199432616009e+01  7.2649795066861671e+01  6.8118994701071429e+01  6.3444881274154206e+01  5.8656161981374439e+01  5.3763655602754916e+01  4.8775023823398691e+01  4.3705789148227282e+01  3.8589444083056094e+01  3.3489298466813302e+01  2.8519416973634836e+01  2.3851263409549833e+01  1.9741638952756983e+01  1.6480745719361948e+01  1.4376083972382201e+01  1.3650719515918848e+01  8.9483983312969968e+01  8.8859059530356106e+01  8.7067284081908454e+01  8.4288266509839431e+01  8.0761177861659206e+01  7.6719940488353018e+01  7.2350617847317025e+01  6.7777331450261769e+01  6.3070053423956594e+01  5.8262127934487410e+01  5.3368007484088920e+01  4.8397172065587824e+01  4.3364621684495397e+01  3.8300689747910354e+01  3.3262610552075145e+01  2.8352294818126040e+01  2.3709893366071078e+01  1.9631627227249503e+01  1.6344065243106151e+01  1.4247233471646238e+01  1.3527612457368921e+01  8.9380255097814086e+01  8.8749150405776930e+01  8.6938667979052198e+01  8.4130629431153721e+01  8.0567399318671676e+01  7.6486554101510507e+01  7.2077948433545629e+01  6.7469492711575214e+01  6.2734839334998860e+01  5.7910676879894623e+01  5.3014113297102227e+01  4.8056312512802215e+01  4.3053113909314753e+01  3.8035693344077750e+01  3.3064499932370602e+01  2.8247453841092607e+01  2.3747469158288208e+01  1.9820027272986799e+01  1.6254883231423836e+01  1.4132974183733463e+01  1.3416177589536266e+01  8.9272180340267994e+01  8.8635665105269240e+01  8.6808718055160497e+01  8.3975163709441773e+01  8.0380236597080724e+01  7.6264706976118845e+01  7.1821565884964997e+01  6.7181602806661118e+01  6.2420968071807138e+01  5.7578285088511848e+01  5.2671735273411528e+01  4.7712315377014306e+01  4.2714041880801503e+01  3.7704084437026395e+01  3.2735809553429000e+01  2.7904802599613664e+01  2.3364779095237441e+01  1.9320364406009585e+01  1.6049555795767635e+01  1.4014356625298305e+01  1.3313458842350800e+01  8.9163699319108161e+01  8.8522357402831986e+01  8.6681109933888109e+01  8.3825499805794209e+01  8.0203249565672394e+01  7.6057875786651977e+01  7.1584990197099984e+01  6.6917667836974303e+01  6.2133912978512107e+01  5.7273688984225231e+01  5.2355886784732952e+01  4.7391465103604325e+01  4.2393630045484244e+01  3.7388175424814172e+01  3.2427182242181928e+01  2.7607127481699738e+01  2.3087550681970551e+01  1.9101339345816033e+01  1.5947708225455852e+01  1.3927634670277788e+01  1.3229534917663107e+01  8.9062274897922919e+01  8.8416748572210409e+01  8.6563585700785396e+01  8.3689750565565390e+01  8.0045073374621609e+01  7.5875425432679407e+01  7.1378666105146564e+01  6.6689814610702399e+01  6.1888451849843406e+01  5.7015744304898440e+01  5.2091416451111058e+01  4.7126911629482244e+01  4.2135651126699926e+01  3.7143548069203327e+01  3.2202969292133446e+01  2.7411023686184279e+01  2.2927968492963014e+01  1.8984897393549961e+01  1.5865329643250840e+01  1.3851217229707453e+01  1.3155878958683520e+01  8.8974540026963453e+01  8.8325640337106250e+01  8.6463104885962650e+01  8.3574987355424412e+01  7.9912827790269077e+01  7.5724472910357875e+01  7.1209689862176077e+01  6.6505137865360922e+01  6.1691706843952808e+01  5.6811550832082190e+01  5.1885082490357931e+01  4.6924144762099736e+01  4.1942267526082567e+01  3.6965153434567135e+01  3.2044540068842132e+01  2.7276245273739306e+01  2.2818148296012644e+01  1.8897362075952742e+01  1.5792695324133488e+01  1.3785673909537088e+01  1.3093406283841892e+01  8.8903401864997562e+01  8.8252101404345453e+01  8.6382753041610599e+01  8.3484031378609330e+01  7.9808738707739778e+01  7.5606333283749123e+01  7.1078179399890757e+01  6.6362280814350441e+01  6.1540540991674547e+01  5.6655811456578228e+01  5.1728920346204063e+01  4.6771859536553279e+01  4.1798030434363184e+01  3.6832690984592432e+01  3.1926747880851391e+01  2.7174721305803018e+01  2.2732725185399467e+01  1.8825909866383498e+01  1.5731645710941857e+01  1.3731134547653781e+01  1.3041330826897379e+01  8.8847709585701708e+01  8.8195225300440370e+01  8.6321779310333127e+01  8.3415862292572001e+01  7.9731032625705751e+01  7.5518089974843718e+01  7.0979808942844457e+01  6.6255342636066146e+01  6.1427386929939686e+01  5.6539269267254539e+01  5.1612049052033058e+01  4.6657754637300002e+01  4.1689645973583069e+01  3.6732645610470733e+01  3.1837080651630544e+01  2.7096580895536846e+01  2.2666048159862711e+01  1.8769260235163664e+01  1.5682430448551864e+01  1.3686219952476092e+01  1.2997763681920024e+01  8.8803188449588077e+01  8.8151515215913946e+01  8.6277472505097194e+01  8.3367888234165918e+01  7.9676607425697540e+01  7.5455749479537246e+01  7.0909548930122895e+01  6.6178281213377389e+01  6.1345325971424266e+01  5.6454352642079996e+01  5.1526554382552142e+01  4.6573977450843991e+01  4.1609819070750063e+01  3.6658833982199724e+01  3.1770983462847571e+01  2.7039186414355083e+01  2.2617180786123804e+01  1.8727243815305389e+01  1.5644275094757855e+01  1.3648747556809742e+01  1.2959639537459097e+01  8.8762427571714355e+01  8.8116363920785346e+01  8.6247280838392129e+01  8.3338133744192376e+01  7.9643178073283607e+01  7.5416362201354360e+01  7.0863752477691889e+01  6.6126889111114266e+01  6.1289803733827348e+01  5.6396404866824227e+01  5.146793534918228