<?xml version="1.0"?>
<VTKFile type="UnstructuredGrid"  version="0.1"  >
<UnstructuredGrid>
<Piece  NumberOfPoints="9261" NumberOfCells="48000">
<Points>
<DataArray  type="Float64"  NumberOfComponents="3"  format="ascii">0 0 0  0.015 0 0  0.03 0 0  0.045 0 0  0.06 0 0  0.075 0 0  0.09 0 0  0.105 0 0  0.12 0 0  0.135 0 0  0.15 0 0  0.165 0 0  0.18 0 0  0.195 0 0  0.21 0 0  0.225 0 0  0.24 0 0  0.255 0 0  0.27 0 0  0.285 0 0  0.3 0 0  0 0.015 0  0.015 0.015 0  0.03 0.015 0  0.045 0.015 0  0.06 0.015 0  0.075 0.015 0  0.09 0.015 0  0.105 0.015 0  0.12 0.015 0  0.135 0.015 0  0.15 0.015 0  0.165 0.015 0  0.18 0.015 0  0.195 0.015 0  0.21 0.015 0  0.225 0.015 0  0.24 0.015 0  0.255 0.015 0  0.27 0.015 0  0.285 0.015 0  0.3 0.015 0  0 0.03 0  0.015 0.03 0  0.03 0.03 0  0.045 0.03 0  0.06 0.03 0  0.075 0.03 0  0.09 0.03 0  0.105 0.03 0  0.12 0.03 0  0.135 0.03 0  0.15 0.03 0  0.165 0.03 0  0.18 0.03 0  0.195 0.03 0  0.21 0.03 0  0.225 0.03 0  0.24 0.03 0  0.255 0.03 0  0.27 0.03 0  0.285 0.03 0  0.3 0.03 0  0 0.045 0  0.015 0.045 0  0.03 0.045 0  0.045 0.045 0  0.06 0.045 0  0.075 0.045 0  0.09 0.045 0  0.105 0.045 0  0.12 0.045 0  0.135 0.045 0  0.15 0.045 0  0.165 0.045 0  0.18 0.045 0  0.195 0.045 0  0.21 0.045 0  0.225 0.045 0  0.24 0.045 0  0.255 0.045 0  0.27 0.045 0  0.285 0.045 0  0.3 0.045 0  0 0.06 0  0.015 0.06 0  0.03 0.06 0  0.045 0.06 0  0.06 0.06 0  0.075 0.06 0  0.09 0.06 0  0.105 0.06 0  0.12 0.06 0  0.135 0.06 0  0.15 0.06 0  0.165 0.06 0  0.18 0.06 0  0.195 0.06 0  0.21 0.06 0  0.225 0.06 0  0.24 0.06 0  0.255 0.06 0  0.27 0.06 0  0.285 0.06 0  0.3 0.06 0  0 0.075 0  0.015 0.075 0  0.03 0.075 0  0.045 0.075 0  0.06 0.075 0  0.075 0.075 0  0.09 0.075 0  0.105 0.075 0  0.12 0.075 0  0.135 0.075 0  0.15 0.075 0  0.165 0.075 0  0.18 0.075 0  0.195 0.075 0  0.21 0.075 0  0.225 0.075 0  0.24 0.075 0  0.255 0.075 0  0.27 0.075 0  0.285 0.075 0  0.3 0.075 0  0 0.09 0  0.015 0.09 0  0.03 0.09 0  0.045 0.09 0  0.06 0.09 0  0.075 0.09 0  0.09 0.09 0  0.105 0.09 0  0.12 0.09 0  0.135 0.09 0  0.15 0.09 0  0.165 0.09 0  0.18 0.09 0  0.195 0.09 0  0.21 0.09 0  0.225 0.09 0  0.24 0.09 0  0.255 0.09 0  0.27 0.09 0  0.285 0.09 0  0.3 0.09 0  0 0.105 0  0.015 0.105 0  0.03 0.105 0  0.045 0.105 0  0.06 0.105 0  0.075 0.105 0  0.09 0.105 0  0.105 0.105 0  0.12 0.105 0  0.135 0.105 0  0.15 0.105 0  0.165 0.105 0  0.18 0.105 0  0.195 0.105 0  0.21 0.105 0  0.225 0.105 0  0.24 0.105 0  0.255 0.105 0  0.27 0.105 0  0.285 0.105 0  0.3 0.105 0  0 0.12 0  0.015 0.12 0  0.03 0.12 0  0.045 0.12 0  0.06 0.12 0  0.075 0.12 0  0.09 0.12 0  0.105 0.12 0  0.12 0.12 0  0.135 0.12 0  0.15 0.12 0  0.165 0.12 0  0.18 0.12 0  0.195 0.12 0  0.21 0.12 0  0.225 0.12 0  0.24 0.12 0  0.255 0.12 0  0.27 0.12 0  0.285 0.12 0  0.3 0.12 0  0 0.135 0  0.015 0.135 0  0.03 0.135 0  0.045 0.135 0  0.06 0.135 0  0.075 0.135 0  0.09 0.135 0  0.105 0.135 0  0.12 0.135 0  0.135 0.135 0  0.15 0.135 0  0.165 0.135 0  0.18 0.135 0  0.195 0.135 0  0.21 0.135 0  0.225 0.135 0  0.24 0.135 0  0.255 0.135 0  0.27 0.135 0  0.285 0.135 0  0.3 0.135 0  0 0.15 0  0.015 0.15 0  0.03 0.15 0  0.045 0.15 0  0.06 0.15 0  0.075 0.15 0  0.09 0.15 0  0.105 0.15 0  0.12 0.15 0  0.135 0.15 0  0.15 0.15 0  0.165 0.15 0  0.18 0.15 0  0.195 0.15 0  0.21 0.15 0  0.225 0.15 0  0.24 0.15 0  0.255 0.15 0  0.27 0.15 0  0.285 0.15 0  0.3 0.15 0  0 0.165 0  0.015 0.165 0  0.03 0.165 0  0.045 0.165 0  0.06 0.165 0  0.075 0.165 0  0.09 0.165 0  0.105 0.165 0  0.12 0.165 0  0.135 0.165 0  0.15 0.165 0  0.165 0.165 0  0.18 0.165 0  0.195 0.165 0  0.21 0.165 0  0.225 0.165 0  0.24 0.165 0  0.255 0.165 0  0.27 0.165 0  0.285 0.165 0  0.3 0.165 0  0 0.18 0  0.015 0.18 0  0.03 0.18 0  0.045 0.18 0  0.06 0.18 0  0.075 0.18 0  0.09 0.18 0  0.105 0.18 0  0.12 0.18 0  0.135 0.18 0  0.15 0.18 0  0.165 0.18 0  0.18 0.18 0  0.195 0.18 0  0.21 0.18 0  0.225 0.18 0  0.24 0.18 0  0.255 0.18 0  0.27 0.18 0  0.285 0.18 0  0.3 0.18 0  0 0.195 0  0.015 0.195 0  0.03 0.195 0  0.045 0.195 0  0.06 0.195 0  0.075 0.195 0  0.09 0.195 0  0.105 0.195 0  0.12 0.195 0  0.135 0.195 0  0.15 0.195 0  0.165 0.195 0  0.18 0.195 0  0.195 0.195 0  0.21 0.195 0  0.225 0.195 0  0.24 0.195 0  0.255 0.195 0  0.27 0.195 0  0.285 0.195 0  0.3 0.195 0  0 0.21 0  0.015 0.21 0  0.03 0.21 0  0.045 0.21 0  0.06 0.21 0  0.075 0.21 0  0.09 0.21 0  0.105 0.21 0  0.12 0.21 0  0.135 0.21 0  0.15 0.21 0  0.165 0.21 0  0.18 0.21 0  0.195 0.21 0  0.21 0.21 0  0.225 0.21 0  0.24 0.21 0  0.255 0.21 0  0.27 0.21 0  0.285 0.21 0  0.3 0.21 0  0 0.225 0  0.015 0.225 0  0.03 0.225 0  0.045 0.225 0  0.06 0.225 0  0.075 0.225 0  0.09 0.225 0  0.105 0.225 0  0.12 0.225 0  0.135 0.225 0  0.15 0.225 0  0.165 0.225 0  0.18 0.225 0  0.195 0.225 0  0.21 0.225 0  0.225 0.225 0  0.24 0.225 0  0.255 0.225 0  0.27 0.225 0  0.285 0.225 0  0.3 0.225 0  0 0.24 0  0.015 0.24 0  0.03 0.24 0  0.045 0.24 0  0.06 0.24 0  0.075 0.24 0  0.09 0.24 0  0.105 0.24 0  0.12 0.24 0  0.135 0.24 0  0.15 0.24 0  0.165 0.24 0  0.18 0.24 0  0.195 0.24 0  0.21 0.24 0  0.225 0.24 0  0.24 0.24 0  0.255 0.24 0  0.27 0.24 0  0.285 0.24 0  0.3 0.24 0  0 0.255 0  0.015 0.255 0  0.03 0.255 0  0.045 0.255 0  0.06 0.255 0  0.075 0.255 0  0.09 0.255 0  0.105 0.255 0  0.12 0.255 0  0.135 0.255 0  0.15 0.255 0  0.165 0.255 0  0.18 0.255 0  0.195 0.255 0  0.21 0.255 0  0.225 0.255 0  0.24 0.255 0  0.255 0.255 0  0.27 0.255 0  0.285 0.255 0  0.3 0.255 0  0 0.27 0  0.015 0.27 0  0.03 0.27 0  0.045 0.27 0  0.06 0.27 0  0.075 0.27 0  0.09 0.27 0  0.105 0.27 0  0.12 0.27 0  0.135 0.27 0  0.15 0.27 0  0.165 0.27 0  0.18 0.27 0  0.195 0.27 0  0.21 0.27 0  0.225 0.27 0  0.24 0.27 0  0.255 0.27 0  0.27 0.27 0  0.285 0.27 0  0.3 0.27 0  0 0.285 0  0.015 0.285 0  0.03 0.285 0  0.045 0.285 0  0.06 0.285 0  0.075 0.285 0  0.09 0.285 0  0.105 0.285 0  0.12 0.285 0  0.135 0.285 0  0.15 0.285 0  0.165 0.285 0  0.18 0.285 0  0.195 0.285 0  0.21 0.285 0  0.225 0.285 0  0.24 0.285 0  0.255 0.285 0  0.27 0.285 0  0.285 0.285 0  0.3 0.285 0  0 0.3 0  0.015 0.3 0  0.03 0.3 0  0.045 0.3 0  0.06 0.3 0  0.075 0.3 0  0.09 0.3 0  0.105 0.3 0  0.12 0.3 0  0.135 0.3 0  0.15 0.3 0  0.165 0.3 0  0.18 0.3 0  0.195 0.3 0  0.21 0.3 0  0.225 0.3 0  0.24 0.3 0  0.255 0.3 0  0.27 0.3 0  0.285 0.3 0  0.3 0.3 0  0 0 0.00075  0.015 0 0.00075  0.03 0 0.00075  0.045 0 0.00075  0.06 0 0.00075  0.075 0 0.00075  0.09 0 0.00075  0.105 0 0.00075  0.12 0 0.00075  0.135 0 0.00075  0.15 0 0.00075  0.165 0 0.00075  0.18 0 0.00075  0.195 0 0.00075  0.21 0 0.00075  0.225 0 0.00075  0.24 0 0.00075  0.255 0 0.00075  0.27 0 0.00075  0.285 0 0.00075  0.3 0 0.00075  0 0.015 0.00075  0.015 0.015 0.00075  0.03 0.015 0.00075  0.045 0.015 0.00075  0.06 0.015 0.00075  0.075 0.015 0.00075  0.09 0.015 0.00075  0.105 0.015 0.00075  0.12 0.015 0.00075  0.135 0.015 0.00075  0.15 0.015 0.00075  0.165 0.015 0.00075  0.18 0.015 0.00075  0.195 0.015 0.00075  0.21 0.015 0.00075  0.225 0.015 0.00075  0.24 0.015 0.00075  0.255 0.015 0.00075  0.27 0.015 0.00075  0.285 0.015 0.00075  0.3 0.015 0.00075  0 0.03 0.00075  0.015 0.03 0.00075  0.03 0.03 0.00075  0.045 0.03 0.00075  0.06 0.03 0.00075  0.075 0.03 0.00075  0.09 0.03 0.00075  0.105 0.03 0.00075  0.12 0.03 0.00075  0.135 0.03 0.00075  0.15 0.03 0.00075  0.165 0.03 0.00075  0.18 0.03 0.00075  0.195 0.03 0.00075  0.21 0.03 0.00075  0.225 0.03 0.00075  0.24 0.03 0.00075  0.255 0.03 0.00075  0.27 0.03 0.00075  0.285 0.03 0.00075  0.3 0.03 0.00075  0 0.045 0.00075  0.015 0.045 0.00075  0.03 0.045 0.00075  0.045 0.045 0.00075  0.06 0.045 0.00075  0.075 0.045 0.00075  0.09 0.045 0.00075  0.105 0.045 0.00075  0.12 0.045 0.00075  0.135 0.045 0.00075  0.15 0.045 0.00075  0.165 0.045 0.00075  0.18 0.045 0.00075  0.195 0.045 0.00075  0.21 0.045 0.00075  0.225 0.045 0.00075  0.24 0.045 0.00075  0.255 0.045 0.00075  0.27 0.045 0.00075  0.285 0.045 0.00075  0.3 0.045 0.00075  0 0.06 0.00075  0.015 0.06 0.00075  0.03 0.06 0.00075  0.045 0.06 0.00075  0.06 0.06 0.00075  0.075 0.06 0.00075  0.09 0.06 0.00075  0.105 0.06 0.00075  0.12 0.06 0.00075  0.135 0.06 0.00075  0.15 0.06 0.00075  0.165 0.06 0.00075  0.18 0.06 0.00075  0.195 0.06 0.00075  0.21 0.06 0.00075  0.225 0.06 0.00075  0.24 0.06 0.00075  0.255 0.06 0.00075  0.27 0.06 0.00075  0.285 0.06 0.00075  0.3 0.06 0.00075  0 0.075 0.00075  0.015 0.075 0.00075  0.03 0.075 0.00075  0.045 0.075 0.00075  0.06 0.075 0.00075  0.075 0.075 0.00075  0.09 0.075 0.00075  0.105 0.075 0.00075  0.12 0.075 0.00075  0.135 0.075 0.00075  0.15 0.075 0.00075  0.165 0.075 0.00075  0.18 0.075 0.00075  0.195 0.075 0.00075  0.21 0.075 0.00075  0.225 0.075 0.00075  0.24 0.075 0.00075  0.255 0.075 0.00075  0.27 0.075 0.00075  0.285 0.075 0.00075  0.3 0.075 0.00075  0 0.09 0.00075  0.015 0.09 0.00075  0.03 0.09 0.00075  0.045 0.09 0.00075  0.06 0.09 0.00075  0.075 0.09 0.00075  0.09 0.09 0.00075  0.105 0.09 0.00075  0.12 0.09 0.00075  0.135 0.09 0.00075  0.15 0.09 0.00075  0.165 0.09 0.00075  0.18 0.09 0.00075  0.195 0.09 0.00075  0.21 0.09 0.00075  0.225 0.09 0.00075  0.24 0.09 0.00075  0.255 0.09 0.00075  0.27 0.09 0.00075  0.285 0.09 0.00075  0.3 0.09 0.00075  0 0.105 0.00075  0.015 0.105 0.00075  0.03 0.105 0.00075  0.045 0.105 0.00075  0.06 0.105 0.00075  0.075 0.105 0.00075  0.09 0.105 0.00075  0.105 0.105 0.00075  0.12 0.105 0.00075  0.135 0.105 0.00075  0.15 0.105 0.00075  0.165 0.105 0.00075  0.18 0.105 0.00075  0.195 0.105 0.00075  0.21 0.105 0.00075  0.225 0.105 0.00075  0.24 0.105 0.00075  0.255 0.105 0.00075  0.27 0.105 0.00075  0.285 0.105 0.00075  0.3 0.105 0.00075  0 0.12 0.00075  0.015 0.12 0.00075  0.03 0.12 0.00075  0.045 0.12 0.00075  0.06 0.12 0.00075  0.075 0.12 0.00075  0.09 0.12 0.00075  0.105 0.12 0.00075  0.12 0.12 0.00075  0.135 0.12 0.00075  0.15 0.12 0.00075  0.165 0.12 0.00075  0.18 0.12 0.00075  0.195 0.12 0.00075  0.21 0.12 0.00075  0.225 0.12 0.00075  0.24 0.12 0.00075  0.255 0.12 0.00075  0.27 0.12 0.00075  0.285 0.12 0.00075  0.3 0.12 0.00075  0 0.135 0.00075  0.015 0.135 0.00075  0.03 0.135 0.00075  0.045 0.135 0.00075  0.06 0.135 0.00075  0.075 0.135 0.00075  0.09 0.1
[...]
<PointData  Scalars="f_1666"> 
<DataArray  type="Float64"  Name="f_1666"  format="ascii">-4.7733013907388693e-19  -1.0311020983053762e-17  -6.9847069507761310e-17  -2.9197031338951476e-16  -6.0909559474541800e-16  1.7183300108989252e-15  2.1827329358563628e-14  8.8513865433013511e-14  3.8380800506655961e-14  -1.4749010191516344e-12  -6.3677852807267790e-12  7.6574850859366031e-12  1.3190667375354654e-10  -2.5378920036681751e-11  -2.3288969956880394e-09  7.4740811009262014e-09  -9.1843405888765474e-09  2.3831115491115982e-09  4.2458813564387324e-09  -2.2002423385194322e-09  -1.3294616840708072e-09  -1.5052232725131169e-17  -2.2912368108941354e-17  -2.1495274241285440e-17  2.8458147498785141e-16  2.4902159386381101e-15  1.1670914873750097e-14  2.8201025227405783e-14  -5.1182988466026819e-14  -8.3006856310817353e-13  -3.3226041857480072e-12  4.6446057358425832e-13  6.3914389443091660e-11  1.8023986979832231e-10  -8.4728798873994318e-10  -3.6109095827770919e-09  2.1305358848014923e-08  -3.7194653540915235e-08  2.0116878301946425e-08  1.2652731211453485e-08  -1.3355244843772480e-08  -3.2461059005279410e-09  6.1604616644975814e-17  1.5159191888017819e-16  6.1026486231630022e-16  1.9483551111723452e-15  3.0261584190678300e-15  -1.5991724755820935e-14  -1.7451563757484369e-13  -8.7451487643636800e-13  -2.1933711576658877e-12  3.9076226998406936e-12  6.2869691524440982e-11  2.2023912679201497e-10  -3.3460721239475304e-10  -5.1150229442594159e-09  -1.7204933186226424e-09  9.5871706268185380e-08  -2.5441642356377933e-07  2.2199043745984568e-07  3.9152878790936702e-08  -1.2942996720622190e-07  -4.3766856142451105e-09  -1.2923545303418122e-16  -4.0250768606012427e-16  -2.1976556727797844e-15  -1.1041337357487177e-14  -4.8370654947847120e-14  -1.7021629715378472e-13  -3.5886600658217424e-13  7.1576622257477514e-13  1.2178514519404307e-11  6.6825393251873666e-11  1.7225891323504075e-10  -3.4211608819745455e-10  -4.9714127865228467e-09  -1.2902479084411527e-08  5.9917478181035260e-08  3.1616045675515370e-07  -1.5388408831957194e-06  2.0541338103174967e-06  -3.0123756271885951e-07  -1.0920489438113556e-06  2.0492027529602756e-07  1.5870738818580364e-16  5.9852493997468467e-16  4.0262133184045278e-15  2.5666692031480752e-14  1.5089723551790068e-13  8.0369111497455343e-13  3.7560685287451512e-12  1.4388982875033444e-11  3.6608123505617444e-11  -1.7443982985421015e-11  -8.5160743597817516e-10  -5.1211201609842821e-09  -1.2795609397163443e-08  3.6840514477978187e-08  3.9706386283480133e-07  2.9415449909756770e-07  -7.7034688634647452e-06  1.6349118043600846e-05  -7.6302447427797177e-06  -7.7060537207261847e-06  3.9088150193425419e-06  -1.0542973590356824e-16  -4.9747050175299762e-16  -4.1285908833791702e-15  -3.2435277369152361e-14  -2.3746236661106172e-13  -1.6142204148495294e-12  -1.0103925701184037e-11  -5.7332399664162610e-11  -2.8654319464839565e-10  -1.1882990677934518e-09  -3.4572936776857505e-09  -1.2890400650615113e-09  6.1054662422434036e-08  3.9737010412447024e-07  8.3936291081272958e-07  -4.6518258891957716e-06  -2.7697957217156612e-05  1.1143826674503235e-04  -9.7644814663143696e-05  -3.9914806802588596e-05  4.9740102626610336e-05  1.5974877208974924e-17  1.5595229940751720e-16  1.9306046013517891e-15  2.0436910234956721e-14  1.9304367389672595e-13  1.6656966396159455e-12  1.3250336579151754e-11  9.7275317070385603e-11  6.5539196021195954e-10  3.9983161810539388e-09  2.1510327525860166e-08  9.6586240178862295e-08  3.1239089981074938e-07  2.6832306839762227e-07  -4.7052355404637785e-06  -3.1430684862252889e-05  -2.9393324539710279e-05  6.1967086548495487e-04  -9.6588315268999645e-04  -4.1977386934940443e-05  5.2245502373300581e-04  2.3861888521221361e-17  7.7344477742187038e-17  2.9257390908537808e-16  -1.3289201157653151e-15  -4.6471213128144937e-14  -6.7863099178253594e-13  -7.7323279574974456e-12  -7.6476597663801931e-11  -6.8039711548853971e-10  -5.5135541258675755e-09  -4.0709131486991623e-08  -2.7115014501548184e-07  -1.5902000981472467e-06  -7.7830763483670272e-06  -2.7505239115567650e-05  -2.8122770947267790e-05  4.2660030147026755e-04  2.3800441851501079e-03  -7.8412578189656391e-03  2.4892424509631215e-03  4.7589280573106414e-03  -8.0601456024551845e-18  -5.6181015352070074e-17  -5.8154001661715694e-16  -5.1508372837199765e-15  -3.8080674724643474e-14  -2.1157434560004201e-13  -3.9091347733045393e-13  1.1092424103586207e-11  2.2148185817557562e-10  2.8510585961999495e-09  3.0296119568895111e-08  2.8281017609393149e-07  2.3637467207788468e-06  1.7665149271645084e-05  1.1562301340759753e-04  6.2655412460199558e-04  2.3711702066153383e-03  1.3281595869030977e-03  -4.9874995187418059e-02  4.3516467112814566e-02  3.7554775835822035e-02  -6.1292080406586557e-18  -1.8862891571104026e-17  -5.5117372670108894e-17  6.2202455646158420e-16  1.4881666391864574e-14  1.9610431967631373e-13  2.0330722645731493e-12  1.7614473936518630e-11  1.2468526878466391e-10  6.0948023892654899e-10  -3.3324953566348241e-10  -5.8458855721722302e-08  -9.7859832683518688e-07  -1.1847598586174444e-05  -1.2051935724940858e-04  -1.0677148118087326e-03  -8.1645726517357211e-03  -5.0319802855013668e-02  -1.8543682902270217e-01  4.8437727075203019e-01  2.4343877466715932e-01  1.1948849774371237e-18  1.1578212793760099e-17  1.3752235712606172e-16  1.3397285690111895e-15  1.0844922329392153e-14  6.9015662487993424e-14  2.4588059216892196e-13  -1.6682123037678789e-12  -4.8564954104173836e-11  -6.7385207087021202e-10  -7.2133828355302415e-09  -6.4142168380183466e-08  -4.6456449280686242e-07  -2.3071785022483012e-06  1.8193681609590687e-06  2.4429242022457650e-04  4.1708363741266305e-03  5.1265187858112703e-02  5.0570680351030428e-01  3.5088606044238486e+00  1.0462625561040686e+00  1.7802502722830111e-18  7.3780439985656541e-18  4.6913844666411220e-17  1.7800888662357626e-16  -9.0917404807939940e-16  -2.9769993324801465e-14  -4.1976954939392070e-13  -4.5224113680475416e-12  -4.0533549855736685e-11  -2.9990639817547308e-10  -1.6215926407975760e-09  -1.8559213368699871e-09  1.0830457055504831e-07  2.0243573075127525e-06  2.5558139935976559e-05  2.6694429887584104e-04  2.4179341890580085e-03  1.8946523788910683e-02  1.2143698341976147e-01  5.0779568929050001e-01  -3.0859417486850893e-01  3.3056696288835435e-19  -1.5772730913544908e-19  -1.5676848907935916e-17  -2.4879985827074836e-16  -2.8473715634428632e-15  -2.6947621148268563e-14  -2.1498507030639894e-13  -1.3691466801848567e-12  -5.1388215460494316e-12  2.7614266005809874e-11  8.9985254384995809e-10  1.3024458253774841e-08  1.4740618430557086e-07  1.4416667915076959e-06  1.2568945390690915e-05  9.8264676784186507e-05  6.8087298236090606e-04  4.0327866137776797e-03  1.8589752884425919e-02  4.7542291918494843e-02  -9.3207918499136053e-02  -2.7076968672782367e-19  -1.7688301504561446e-18  -1.7787015555924834e-17  -1.5437625545167300e-16  -1.1257691307626389e-15  -6.2218160423197257e-15  -1.2222066542167414e-14  3.0516460309391577e-13  6.1724058937362806e-12  7.9797166032632189e-11  8.5420817318732936e-10  8.0917434872918653e-09  6.9492225763772553e-08  5.4520294161747734e-07  3.8980336788716123e-06  2.5091669897084711e-05  1.4164975920151826e-04  6.6396436847161202e-04  2.2557212026931596e-03  2.9698232612445003e-03  -1.5730770554248034e-02  -2.1292169049586886e-19  -8.7989519791384196e-19  -5.9020178976961833e-18  -2.8177805113919407e-17  5.2263102453285950e-18  2.3748861470536638e-15  3.9745733025001223e-14  4.8203675001077140e-13  4.9941432088553774e-12  4.6495122989224800e-11  3.9701842136142533e-10  3.1345339420865831e-09  2.2904447523690228e-08  1.5417955463712928e-07  9.4570475232769956e-07  5.1809299987995631e-06  2.4437156915938075e-05  9.2034592061461076e-05  2.2456256614123725e-04  4.7212913898389743e-06  -2.1061034877531385e-03  -6.2128256690233360e-20  -1.2471886010548714e-19  3.7539509369662399e-19  1.6503188278447081e-17  2.4895497998648472e-16  2.8993925400711571e-15  2.9422406553043116e-14  2.7120689975985569e-13  2.3123002139902603e-12  1.8383624392470650e-11  1.3663852538351955e-10  9.4810623045362658e-10  6.1103251807312826e-09  3.6230707645435464e-08  1.9455373337908565e-07  9.2138298961858202e-07  3.6666924449028483e-06  1.1022709541964223e-05  1.7081931524372739e-05  -3.6335771752764644e-05  -2.4220112880230876e-04  7.7395358748082863e-21  1.1209475663944658e-19  1.5409717494602291e-18  1.7435382281432450e-17  1.7443702996092390e-16  1.5984193578679839e-15  1.3635727583169315e-14  1.0915804274385359e-13  8.2276936974990149e-13  5.8405389873730123e-12  3.8955359933277968e-11  2.4292029571228160e-10  1.4047120056867526e-09  7.4370898927131819e-09  3.5333294789030173e-08  1.4563665253650866e-07  4.8817974097893920e-07  1.1296043453775416e-06  5.9205322986358606e-07  -7.5500239425023511e-06  -2.4270153352930015e-05  1.7896987699398906e-20  1.0371818711376724e-19  1.0279840668310267e-18  9.4387781642513739e-18  8.0879294675230290e-17  6.5267176677088386e-16  4.9819897964376086e-15  3.6025976253999350e-14  2.4663474889509718e-13  1.5944397558345737e-12  9.6892144504054702e-12  5.4958015499424907e-11  2.8792783985989934e-10  1.3715200481376680e-09  5.7938987014026034e-09  2.0785020387486174e-08  5.7807375140019463e-08  9.2664699578324923e-08  -1.0547941419134568e-07  -1.1042841002139348e-06  -2.0586962957117034e-06  1.3893102913173055e-20  6.1710530875982841e-20  5.1206434119619733e-19  4.0814346543680188e-18  3.1085397727971267e-17  2.2624116164260458e-16  1.5718511227964751e-15  1.0403521552822792e-14  6.5386009125637249e-14  3.8844281353200234e-13  2.1673026112527572e-12  1.1255516143382096e-11  5.3714258497543067e-11  2.3106892283004971e-10  8.6855365043977346e-10  2.6924810034784939e-09  5.9810550281177212e-09  4.4085020241764106e-09  -3.0651100151573078e-08  -1.3386381955373187e-07  -1.3049777299424561e-07  3.6796034918205667e-21  1.6235223598619991e-20  1.3737597406419283e-19  1.0824688048711819e-18  8.0540814504483801e-18  5.6775513779723258e-17  3.7945944922745940e-16  2.4018575740115924e-15  1.4357871212894884e-14  8.0683228077851272e-14  4.2328907682509413e-13  2.0526281876990537e-12  9.0655253200193373e-12  3.5638910899457829e-11  1.1991077774592310e-10  3.1859642899405634e-10  5.2214257262061064e-10  -3.1547359321836829e-10  -5.1760238848269521e-09  -1.4071022752020589e-08  -2.1350135709657073e-09  5.0263297289101137e-21  1.7020963241565432e-20  1.2232359149842863e-19  8.4673718739633599e-19  5.6197665603604819e-18  3.5700032957552883e-17  2.1652696053485947e-16  1.2494686085411059e-15  6.8272157201753714e-15  3.5098169626169916e-14  1.6828815948460257e-13  7.4340358531955967e-13  2.9712769212617548e-12  1.0439008680903288e-11  3.0577206506625845e-11  6.5843149386332383e-11  5.6204510039980194e-11  -2.7379370247731808e-10  -1.3986698749555211e-09  -2.4558135722203161e-09  1.9591656165371799e-09  -4.9051078313574156e-19  -1.0333630622493514e-17  -6.9760844543077139e-17  -2.9090171966587721e-16  -6.0330980493076845e-16  1.7361090567415583e-15  2.1828023327851791e-14  8.8184192283609303e-14  3.6636924030209776e-14  -1.4769803180437265e-12  -6.3445387172959924e-12  7.7659617331199187e-12  1.3172369578972730e-10  -2.7275504427453741e-11  -2.3236237279078825e-09  7.4754295451201733e-09  -9.2037939743030533e-09  2.4036862775412896e-09  4.2486038401283066e-09  -2.2115003901867777e-09  -1.3309328680534253e-09  -1.5012649187864943e-17  -2.2730804091928652e-17  -2.0831437945816320e-17  2.8616008334272170e-16  2.4886867811589992e-15  1.1627712885527547e-14  2.7933657840886908e-14  -5.2051833353592500e-14  -8.2999694312953593e-13  -3.3053740622430885e-12  5.4388479299254958e-13  6.3894727141307477e-11  1.7869838090218714e-10  -8.4922176243087586e-10  -3.5826652267984450e-09  2.1250342766305733e-08  -3.7181728498215357e-08  2.0175160698898341e-08  1.2619202199703656e-08  -1.3382057571701445e-08  -3.2375517392001955e-09  6.1564209370862143e-17  1.5106440709015025e-16  6.0739386225718121e-16  1.9345457066258737e-15  2.9712443496454817e-15  -1.6143425197631650e-14  -1.7454069645218591e-13  -8.7160764505629167e-13  -2.1732913211454659e-12  3.9742891741794719e-12  6.2846498500306845e-11  2.1882996650949438e-10  -3.3965815001920509e-10  -5.1018868786837420e-09  -1.6124526302513962e-09  9.5487651215217128e-08  -2.5413082975998205e-07  2.2231919779271227e-07  3.8754358239012050e-08  -1.2957406292535245e-07  -4.2133238625425546e-09  -1.2930352881642360e-16  -4.0177152075208361e-16  -2.1923700806745196e-15  -1.1006814382206538e-14  -4.8168234905437647e-14  -1.6917460659754037e-13  -3.5439117919916641e-13  7.2975638414592585e-13  1.2191537058703879e-11  6.6630393514110723e-11  1.7072608006487994e-10  -3.4713890124789234e-10  -4.9660958511717249e-09  -1.2782908934664149e-08  6.0112436352009683e-08  3.1396790993781697e-07  -1.5356697964631365e-06  2.0552114183959849e-06  -3.0511657555884665e-07  -1.0922832082272574e-06  2.0703826098359906e-07  1.5896107278928715e-16  5.9814517858088454e-16  4.0219600614130427e-15  2.5627910824197382e-14  1.5058788823531488e-13  8.0149175307324280e-13  3.7421430811538790e-12  1.4311813444350631e-11  3.6249858623126878e-11  -1.8684224780779786e-11  -8.5338738367012366e-10  -5.1076003015519812e-09  -1.2675773228048587e-08  3.7190842039164674e-08  3.9603855923480161e-07  2.8496337299713225e-07  -7.6770222871563779e-06  1.6343428870939507e-05  -7.6618494715176062e-06  -7.6980509113800090e-06  3.9313021603114245e-06  -1.0574906228218712e-16  -4.9777820263606214e-16  -4.1293068925067087e-15  -3.2427513042945828e-14  -2.3730481913017614e-13  -1.6124026191416450e-12  -1.0087130856640810e-11  -5.7198870063120667e-11  -2.8561360540048269e-10  -1.1826832637773279e-09  -3.4289564802332303e-09  -1.1816918146777993e-09  6.1242328994301059e-08  3.9632667270413410e-07  8.2965209283149967e-07  -4.6689387015039617e-06  -2.7526766707416157e-05  1.1128953369826704e-04  -9.7853562610873050e-05  -3.9760269459100044e-05  4.9947086574269456e-05  1.6137907883794056e-17  1.5647889333442601e-16  1.9346006040489578e-15  2.0463915090006405e-14  1.9319086190644886e-13  1.6661597372543297e-12  1.3247849942032482e-11  9.7209810307285332e-11  6.5459315358509412e-10  3.9907968125553491e-09  2.1450822256576174e-08  9.6185577035522126e-08  3.1016510425129520e-07  2.5916063989680274e-07  -4.7219857793170004e-06  -3.1329278050892265e-05  -2.8625622637909812e-05  6.1799278746546332e-04  -9.6682093696204882e-04  -4.0021907722073649e-05  5.2411945761705685e-04  2.3887156562812502e-17  7.7200710848441398e-17  2.9054251755686265e-16  -1.3515275356203724e-15  -4.6685592645566719e-14  -6.8041043682299081e-13  -7.7451483581107949e-12  -7.6552474384041867e-11  -6.8069128905123874e-10  -5.5129738614608242e-09  -4.0681512319128375e-08  -2.7078371094190604e-07  -1.5866526645338953e-06  -7.7553044120917485e-06  -2.7331399517611288e-05  -2.7356334435742226e-05  4.2763839355738052e-04  2.3672504349436228e-03  -7.8410448940016888e-03  2.5098769069893429e-03  4.7702910455061469e-03  -8.1111981567103217e-18  -5.6315457907463199e-17  -5.8232660393106947e-16  -5.1531372478299885e-15  -3.8054588356816587e-14  -2.1095052919013290e-13  -3.8261975307175888e-13  1.1180300801362368e-11  2.2227926569520616e-10  2.8573170675334506e-09  3.0337144494596979e-08  2.8300415822346045e-07  2.3638612701684467e-06  1.7653619307243290e-05  1.1544562250042294e-04  6.2477580353023014e-04  2.3582148627102231e-03  1.2729012388534374e-03  -4.9820765053292415e-02  4.3716698632430481e-02  3.7614435859341773e-02  -6.1347806458404644e-18  -1.8822252958097279e-17  -5.4526341679421334e-17  6.2861506309561685e-16  1.4942373843345091e-14  1.9656878124148976e-13  2.0357707199628270e-12  1.7620773944290117e-11  1.2456362837475199e-10  6.0688668636903249e-10  -3.6696411355972824e-10  -5.8812403207055798e-08  -9.8176576894898542e-07  -1.1871766512256118e-05  -1.2066629046639037e-04  -1.0682360996399642e-03  -8.1622309809998572e-03  -5.0259216447095627e-02  -1.8497987814358438e-01  4.8643912404589362e-01  2.4359872662763379e-01  1.2070535689345369e-18  1.1619565307417304e-17  1.3781647056498315e-16  1.3412547210120521e-15  1.0845913884770985e-14  6.8905133060295863e-14  2.4395071263591702e-13  -1.6912635924872469e-12  -4.8789351645190597e-11  -6.7567652178799700e-10  -7.2250384761232373e-09  -6.4182314464629970e-08  -4.6422264286575593e-07  -2.2975349195199175e-06  1.9597228946815061e-06  2.4593352402977220e-04  4.1879456287342793e-03  5.1437648470731769e-02  5.0763521276456947e-01  3.5331414232938263e+00  1.0457062751678463e+00  1.7846208422251033e-18  7.3793899792058989e-18  4.6849612884628463e-17  1.7680565614596857e-16  -9.2389862272272002e-16  -2.9915857341194075e-14  -4.2098335514842384e-13  -4.5305729704362497e-12  -4.0568828919799765e-11  -2.9981083127253155e-10  -1.6169353797210126e-09  -1.7840922513891393e-09  1.0914356823045405e-07  2.0327173544854423e-06  2.5631587711836878e-05  2.6751433822177790e-04  2.4217601483139395e-03  1.8967695787649310e-02  1.2152999054217176e-01  5.0821490339734843e-01  -3.1093747654128523e-01  3.2925451460490346e-19  -1.6705492502713607e-19  -1.5771910097483961e-17  -2.4964078930607176e-16  -2.8536012075551523e-15  -2.6982604576122575e-14  -2.1505734723449326e-13  -1.3674581194267931e-12  -5.1041427929329850e-12  2.8064167567676156e-11  9.0465481257796163e-10  1.3069470624809822e-08  1.4778427749382534e-07  1.4445124628564003e-06  1.2587780417127475e-05  9.8368804806442942e-05  6.8128470335089065e-04  4.0330972436079379e-03  1.8578094664269899e-02  4.7446851785978586e-02  -9.3482988329246314e-02  -2.7234589434982261e-19  -1.7735446620722812e-18  -1.7818536601002117e-17  -1.5452165421991598e-16  -1.1256367255202308e-15  -6.2076976233723085e-15  -1.1994134954222558e-14  3.0787858096424781e-13  6.2000285592744288e-12  8.0048625282838318e-11  8.5628894743216846e-10  8.1074278169467603e-09  6.9598934438084420e-08  5.4584205497860290e-07  3.9012072071741843e-06  2.5102478286142748e-05  1.4164727838293943e-04  6.6356259902951114e-04  2.2522127236354185e-03  2.9547369859840651e-03  -1.5753044715308744e-02  -2.1345238321949540e-19  -8.8041798433803149e-19  -5.8988414272807852e-18  -2.8077836280804839e-17  6.6587542617983415e-18  2.3910976814035821e-15  3.9906148869701165e-14  4.8347479637298174e-13  5.0059879684543451e-12  4.6585092348224027e-11  3.9764612309321512e-10  3.1385060449425467e-09  2.2926632613240550e-08  1.5428228866955338e-07  9.4602757582650309e-07  5.1807643334591093e-06  2.4424961465614401e-05  9.1926905416301274e-05  2.2399784601123107e-04  3.1988602367886425e-06  -2.1073173841392738e-03  -6.2100139004282677e-20  -1.2402275779541002e-19  3.8422691784855516e-19  1.6599869903983662e-17  2.4989477632395939e-16  2.9077474342522127e-15  2.9491214410566241e-14  2.7173423481795493e-13  2.3160568357164103e-12  1.8408336060357078e-11  1.3678652373993112e-10  9.4889079532875005e-10  6.1137803450535572e-09  3.6241004992294857e-08  1.9454721884804126e-07  9.2099928851863289e-07  3.6632980510440126e-06  1.1003449896278656e-05  1.7010546338100714e-05  -3.6447066247278332e-05  -2.4218627778944949e-04  7.8701043986305150e-21  1.1267650345792777e-19  1.5465028193261408e-18  1.7484407944262184e-17  1.7484185792287849e-16  1.6015506487097673e-15  1.3658429903960250e-14  1.0931181744040110e-13  8.2373487594247957e-13  5.8460754203270514e-12  3.8983538347608200e-11  2.4303972296472131e-10  1.4050543251123623e-09  7.4368473287094844e-09  3.5320693966547874e-08  1.4552516519085298e-07  4.8751966024865208e-07  1.1267933970430033e-06  5.8454131026951774e-07  -7.5534253702746681e-06  -2.4252890929045786e-05  1.7984257636755232e-20  1.0401201025140688e-19  1.0304227091166991e-18  9.4577247650649276e-18  8.1018288935311829e-17  6.5363317972564488e-16  4.9882300896709892e-15  3.6063654160321645e-14  2.4684314536312496e-13  1.5954656851695669e-12  9.6934308259664926e-12  5.4969734895345833e-11  2.8791882319915079e-10  1.3710918835208727e-09  5.7901113077598194e-09  2.0761972109516994e-08  5.7701160342113854e-08  9.2311979162194636e-08  -1.0611418