<?xml version="1.0"?>
<VTKFile type="UnstructuredGrid"  version="0.1"  >
<UnstructuredGrid>
<Piece  NumberOfPoints="9261" NumberOfCells="48000">
<Points>
<DataArray  type="Float64"  NumberOfComponents="3"  format="ascii">0 0 0  0.015 0 0  0.03 0 0  0.045 0 0  0.06 0 0  0.075 0 0  0.09 0 0  0.105 0 0  0.12 0 0  0.135 0 0  0.15 0 0  0.165 0 0  0.18 0 0  0.195 0 0  0.21 0 0  0.225 0 0  0.24 0 0  0.255 0 0  0.27 0 0  0.285 0 0  0.3 0 0  0 0.015 0  0.015 0.015 0  0.03 0.015 0  0.045 0.015 0  0.06 0.015 0  0.075 0.015 0  0.09 0.015 0  0.105 0.015 0  0.12 0.015 0  0.135 0.015 0  0.15 0.015 0  0.165 0.015 0  0.18 0.015 0  0.195 0.015 0  0.21 0.015 0  0.225 0.015 0  0.24 0.015 0  0.255 0.015 0  0.27 0.015 0  0.285 0.015 0  0.3 0.015 0  0 0.03 0  0.015 0.03 0  0.03 0.03 0  0.045 0.03 0  0.06 0.03 0  0.075 0.03 0  0.09 0.03 0  0.105 0.03 0  0.12 0.03 0  0.135 0.03 0  0.15 0.03 0  0.165 0.03 0  0.18 0.03 0  0.195 0.03 0  0.21 0.03 0  0.225 0.03 0  0.24 0.03 0  0.255 0.03 0  0.27 0.03 0  0.285 0.03 0  0.3 0.03 0  0 0.045 0  0.015 0.045 0  0.03 0.045 0  0.045 0.045 0  0.06 0.045 0  0.075 0.045 0  0.09 0.045 0  0.105 0.045 0  0.12 0.045 0  0.135 0.045 0  0.15 0.045 0  0.165 0.045 0  0.18 0.045 0  0.195 0.045 0  0.21 0.045 0  0.225 0.045 0  0.24 0.045 0  0.255 0.045 0  0.27 0.045 0  0.285 0.045 0  0.3 0.045 0  0 0.06 0  0.015 0.06 0  0.03 0.06 0  0.045 0.06 0  0.06 0.06 0  0.075 0.06 0  0.09 0.06 0  0.105 0.06 0  0.12 0.06 0  0.135 0.06 0  0.15 0.06 0  0.165 0.06 0  0.18 0.06 0  0.195 0.06 0  0.21 0.06 0  0.225 0.06 0  0.24 0.06 0  0.255 0.06 0  0.27 0.06 0  0.285 0.06 0  0.3 0.06 0  0 0.075 0  0.015 0.075 0  0.03 0.075 0  0.045 0.075 0  0.06 0.075 0  0.075 0.075 0  0.09 0.075 0  0.105 0.075 0  0.12 0.075 0  0.135 0.075 0  0.15 0.075 0  0.165 0.075 0  0.18 0.075 0  0.195 0.075 0  0.21 0.075 0  0.225 0.075 0  0.24 0.075 0  0.255 0.075 0  0.27 0.075 0  0.285 0.075 0  0.3 0.075 0  0 0.09 0  0.015 0.09 0  0.03 0.09 0  0.045 0.09 0  0.06 0.09 0  0.075 0.09 0  0.09 0.09 0  0.105 0.09 0  0.12 0.09 0  0.135 0.09 0  0.15 0.09 0  0.165 0.09 0  0.18 0.09 0  0.195 0.09 0  0.21 0.09 0  0.225 0.09 0  0.24 0.09 0  0.255 0.09 0  0.27 0.09 0  0.285 0.09 0  0.3 0.09 0  0 0.105 0  0.015 0.105 0  0.03 0.105 0  0.045 0.105 0  0.06 0.105 0  0.075 0.105 0  0.09 0.105 0  0.105 0.105 0  0.12 0.105 0  0.135 0.105 0  0.15 0.105 0  0.165 0.105 0  0.18 0.105 0  0.195 0.105 0  0.21 0.105 0  0.225 0.105 0  0.24 0.105 0  0.255 0.105 0  0.27 0.105 0  0.285 0.105 0  0.3 0.105 0  0 0.12 0  0.015 0.12 0  0.03 0.12 0  0.045 0.12 0  0.06 0.12 0  0.075 0.12 0  0.09 0.12 0  0.105 0.12 0  0.12 0.12 0  0.135 0.12 0  0.15 0.12 0  0.165 0.12 0  0.18 0.12 0  0.195 0.12 0  0.21 0.12 0  0.225 0.12 0  0.24 0.12 0  0.255 0.12 0  0.27 0.12 0  0.285 0.12 0  0.3 0.12 0  0 0.135 0  0.015 0.135 0  0.03 0.135 0  0.045 0.135 0  0.06 0.135 0  0.075 0.135 0  0.09 0.135 0  0.105 0.135 0  0.12 0.135 0  0.135 0.135 0  0.15 0.135 0  0.165 0.135 0  0.18 0.135 0  0.195 0.135 0  0.21 0.135 0  0.225 0.135 0  0.24 0.135 0  0.255 0.135 0  0.27 0.135 0  0.285 0.135 0  0.3 0.135 0  0 0.15 0  0.015 0.15 0  0.03 0.15 0  0.045 0.15 0  0.06 0.15 0  0.075 0.15 0  0.09 0.15 0  0.105 0.15 0  0.12 0.15 0  0.135 0.15 0  0.15 0.15 0  0.165 0.15 0  0.18 0.15 0  0.195 0.15 0  0.21 0.15 0  0.225 0.15 0  0.24 0.15 0  0.255 0.15 0  0.27 0.15 0  0.285 0.15 0  0.3 0.15 0  0 0.165 0  0.015 0.165 0  0.03 0.165 0  0.045 0.165 0  0.06 0.165 0  0.075 0.165 0  0.09 0.165 0  0.105 0.165 0  0.12 0.165 0  0.135 0.165 0  0.15 0.165 0  0.165 0.165 0  0.18 0.165 0  0.195 0.165 0  0.21 0.165 0  0.225 0.165 0  0.24 0.165 0  0.255 0.165 0  0.27 0.165 0  0.285 0.165 0  0.3 0.165 0  0 0.18 0  0.015 0.18 0  0.03 0.18 0  0.045 0.18 0  0.06 0.18 0  0.075 0.18 0  0.09 0.18 0  0.105 0.18 0  0.12 0.18 0  0.135 0.18 0  0.15 0.18 0  0.165 0.18 0  0.18 0.18 0  0.195 0.18 0  0.21 0.18 0  0.225 0.18 0  0.24 0.18 0  0.255 0.18 0  0.27 0.18 0  0.285 0.18 0  0.3 0.18 0  0 0.195 0  0.015 0.195 0  0.03 0.195 0  0.045 0.195 0  0.06 0.195 0  0.075 0.195 0  0.09 0.195 0  0.105 0.195 0  0.12 0.195 0  0.135 0.195 0  0.15 0.195 0  0.165 0.195 0  0.18 0.195 0  0.195 0.195 0  0.21 0.195 0  0.225 0.195 0  0.24 0.195 0  0.255 0.195 0  0.27 0.195 0  0.285 0.195 0  0.3 0.195 0  0 0.21 0  0.015 0.21 0  0.03 0.21 0  0.045 0.21 0  0.06 0.21 0  0.075 0.21 0  0.09 0.21 0  0.105 0.21 0  0.12 0.21 0  0.135 0.21 0  0.15 0.21 0  0.165 0.21 0  0.18 0.21 0  0.195 0.21 0  0.21 0.21 0  0.225 0.21 0  0.24 0.21 0  0.255 0.21 0  0.27 0.21 0  0.285 0.21 0  0.3 0.21 0  0 0.225 0  0.015 0.225 0  0.03 0.225 0  0.045 0.225 0  0.06 0.225 0  0.075 0.225 0  0.09 0.225 0  0.105 0.225 0  0.12 0.225 0  0.135 0.225 0  0.15 0.225 0  0.165 0.225 0  0.18 0.225 0  0.195 0.225 0  0.21 0.225 0  0.225 0.225 0  0.24 0.225 0  0.255 0.225 0  0.27 0.225 0  0.285 0.225 0  0.3 0.225 0  0 0.24 0  0.015 0.24 0  0.03 0.24 0  0.045 0.24 0  0.06 0.24 0  0.075 0.24 0  0.09 0.24 0  0.105 0.24 0  0.12 0.24 0  0.135 0.24 0  0.15 0.24 0  0.165 0.24 0  0.18 0.24 0  0.195 0.24 0  0.21 0.24 0  0.225 0.24 0  0.24 0.24 0  0.255 0.24 0  0.27 0.24 0  0.285 0.24 0  0.3 0.24 0  0 0.255 0  0.015 0.255 0  0.03 0.255 0  0.045 0.255 0  0.06 0.255 0  0.075 0.255 0  0.09 0.255 0  0.105 0.255 0  0.12 0.255 0  0.135 0.255 0  0.15 0.255 0  0.165 0.255 0  0.18 0.255 0  0.195 0.255 0  0.21 0.255 0  0.225 0.255 0  0.24 0.255 0  0.255 0.255 0  0.27 0.255 0  0.285 0.255 0  0.3 0.255 0  0 0.27 0  0.015 0.27 0  0.03 0.27 0  0.045 0.27 0  0.06 0.27 0  0.075 0.27 0  0.09 0.27 0  0.105 0.27 0  0.12 0.27 0  0.135 0.27 0  0.15 0.27 0  0.165 0.27 0  0.18 0.27 0  0.195 0.27 0  0.21 0.27 0  0.225 0.27 0  0.24 0.27 0  0.255 0.27 0  0.27 0.27 0  0.285 0.27 0  0.3 0.27 0  0 0.285 0  0.015 0.285 0  0.03 0.285 0  0.045 0.285 0  0.06 0.285 0  0.075 0.285 0  0.09 0.285 0  0.105 0.285 0  0.12 0.285 0  0.135 0.285 0  0.15 0.285 0  0.165 0.285 0  0.18 0.285 0  0.195 0.285 0  0.21 0.285 0  0.225 0.285 0  0.24 0.285 0  0.255 0.285 0  0.27 0.285 0  0.285 0.285 0  0.3 0.285 0  0 0.3 0  0.015 0.3 0  0.03 0.3 0  0.045 0.3 0  0.06 0.3 0  0.075 0.3 0  0.09 0.3 0  0.105 0.3 0  0.12 0.3 0  0.135 0.3 0  0.15 0.3 0  0.165 0.3 0  0.18 0.3 0  0.195 0.3 0  0.21 0.3 0  0.225 0.3 0  0.24 0.3 0  0.255 0.3 0  0.27 0.3 0  0.285 0.3 0  0.3 0.3 0  0 0 0.00075  0.015 0 0.00075  0.03 0 0.00075  0.045 0 0.00075  0.06 0 0.00075  0.075 0 0.00075  0.09 0 0.00075  0.105 0 0.00075  0.12 0 0.00075  0.135 0 0.00075  0.15 0 0.00075  0.165 0 0.00075  0.18 0 0.00075  0.195 0 0.00075  0.21 0 0.00075  0.225 0 0.00075  0.24 0 0.00075  0.255 0 0.00075  0.27 0 0.00075  0.285 0 0.00075  0.3 0 0.00075  0 0.015 0.00075  0.015 0.015 0.00075  0.03 0.015 0.00075  0.045 0.015 0.00075  0.06 0.015 0.00075  0.075 0.015 0.00075  0.09 0.015 0.00075  0.105 0.015 0.00075  0.12 0.015 0.00075  0.135 0.015 0.00075  0.15 0.015 0.00075  0.165 0.015 0.00075  0.18 0.015 0.00075  0.195 0.015 0.00075  0.21 0.015 0.00075  0.225 0.015 0.00075  0.24 0.015 0.00075  0.255 0.015 0.00075  0.27 0.015 0.00075  0.285 0.015 0.00075  0.3 0.015 0.00075  0 0.03 0.00075  0.015 0.03 0.00075  0.03 0.03 0.00075  0.045 0.03 0.00075  0.06 0.03 0.00075  0.075 0.03 0.00075  0.09 0.03 0.00075  0.105 0.03 0.00075  0.12 0.03 0.00075  0.135 0.03 0.00075  0.15 0.03 0.00075  0.165 0.03 0.00075  0.18 0.03 0.00075  0.195 0.03 0.00075  0.21 0.03 0.00075  0.225 0.03 0.00075  0.24 0.03 0.00075  0.255 0.03 0.00075  0.27 0.03 0.00075  0.285 0.03 0.00075  0.3 0.03 0.00075  0 0.045 0.00075  0.015 0.045 0.00075  0.03 0.045 0.00075  0.045 0.045 0.00075  0.06 0.045 0.00075  0.075 0.045 0.00075  0.09 0.045 0.00075  0.105 0.045 0.00075  0.12 0.045 0.00075  0.135 0.045 0.00075  0.15 0.045 0.00075  0.165 0.045 0.00075  0.18 0.045 0.00075  0.195 0.045 0.00075  0.21 0.045 0.00075  0.225 0.045 0.00075  0.24 0.045 0.00075  0.255 0.045 0.00075  0.27 0.045 0.00075  0.285 0.045 0.00075  0.3 0.045 0.00075  0 0.06 0.00075  0.015 0.06 0.00075  0.03 0.06 0.00075  0.045 0.06 0.00075  0.06 0.06 0.00075  0.075 0.06 0.00075  0.09 0.06 0.00075  0.105 0.06 0.00075  0.12 0.06 0.00075  0.135 0.06 0.00075  0.15 0.06 0.00075  0.165 0.06 0.00075  0.18 0.06 0.00075  0.195 0.06 0.00075  0.21 0.06 0.00075  0.225 0.06 0.00075  0.24 0.06 0.00075  0.255 0.06 0.00075  0.27 0.06 0.00075  0.285 0.06 0.00075  0.3 0.06 0.00075  0 0.075 0.00075  0.015 0.075 0.00075  0.03 0.075 0.00075  0.045 0.075 0.00075  0.06 0.075 0.00075  0.075 0.075 0.00075  0.09 0.075 0.00075  0.105 0.075 0.00075  0.12 0.075 0.00075  0.135 0.075 0.00075  0.15 0.075 0.00075  0.165 0.075 0.00075  0.18 0.075 0.00075  0.195 0.075 0.00075  0.21 0.075 0.00075  0.225 0.075 0.00075  0.24 0.075 0.00075  0.255 0.075 0.00075  0.27 0.075 0.00075  0.285 0.075 0.00075  0.3 0.075 0.00075  0 0.09 0.00075  0.015 0.09 0.00075  0.03 0.09 0.00075  0.045 0.09 0.00075  0.06 0.09 0.00075  0.075 0.09 0.00075  0.09 0.09 0.00075  0.105 0.09 0.00075  0.12 0.09 0.00075  0.135 0.09 0.00075  0.15 0.09 0.00075  0.165 0.09 0.00075  0.18 0.09 0.00075  0.195 0.09 0.00075  0.21 0.09 0.00075  0.225 0.09 0.00075  0.24 0.09 0.00075  0.255 0.09 0.00075  0.27 0.09 0.00075  0.285 0.09 0.00075  0.3 0.09 0.00075  0 0.105 0.00075  0.015 0.105 0.00075  0.03 0.105 0.00075  0.045 0.105 0.00075  0.06 0.105 0.00075  0.075 0.105 0.00075  0.09 0.105 0.00075  0.105 0.105 0.00075  0.12 0.105 0.00075  0.135 0.105 0.00075  0.15 0.105 0.00075  0.165 0.105 0.00075  0.18 0.105 0.00075  0.195 0.105 0.00075  0.21 0.105 0.00075  0.225 0.105 0.00075  0.24 0.105 0.00075  0.255 0.105 0.00075  0.27 0.105 0.00075  0.285 0.105 0.00075  0.3 0.105 0.00075  0 0.12 0.00075  0.015 0.12 0.00075  0.03 0.12 0.00075  0.045 0.12 0.00075  0.06 0.12 0.00075  0.075 0.12 0.00075  0.09 0.12 0.00075  0.105 0.12 0.00075  0.12 0.12 0.00075  0.135 0.12 0.00075  0.15 0.12 0.00075  0.165 0.12 0.00075  0.18 0.12 0.00075  0.195 0.12 0.00075  0.21 0.12 0.00075  0.225 0.12 0.00075  0.24 0.12 0.00075  0.255 0.12 0.00075  0.27 0.12 0.00075  0.285 0.12 0.00075  0.3 0.12 0.00075  0 0.135 0.00075  0.015 0.135 0.00075  0.03 0.135 0.00075  0.045 0.135 0.00075  0.06 0.135 0.00075  0.075 0.135 0.00075  0.09 0.1
[...]
<PointData  Scalars="f_1666"> 
<DataArray  type="Float64"  Name="f_1666"  format="ascii">1.3940960594729329e-08  -9.3338044873747026e-09  5.7657724378818450e-09  1.2386896501056149e-09  -1.3043949073935591e-09  -5.8979867487915963e-10  5.0863363763213407e-11  1.5590888246453493e-10  9.1749795159820003e-11  3.6580386805310275e-11  1.1721692881484417e-11  3.2298977803301250e-12  7.9341056811930505e-13  1.7765973061522155e-13  3.6810411159873427e-14  7.1328895050145481e-15  1.3027777251003309e-15  2.2559785347621562e-16  3.7210647202848872e-17  5.8232669411817008e-18  2.0142597468906402e-18  4.2683093353695136e-08  -3.7380639486116314e-08  3.0724534647427426e-08  -2.8704520011093410e-10  -7.2107558804870649e-09  -1.6225192103808661e-09  8.9959547336596910e-10  8.5433115795010942e-10  3.9715181138656235e-10  1.3670613279989989e-10  3.8980638548723595e-11  9.6968067583676261e-12  2.1674159896211065e-12  4.4355202228571847e-13  8.4170807305781100e-14  1.4943829588556423e-14  2.4978759489779106e-15  3.9477653152194931e-16  5.9137555019939243e-17  8.2734950127318291e-18  2.3018022675985169e-18  1.8850951847484755e-07  -2.5476038773591002e-07  2.7909306645437611e-07  -5.7139313143629686e-08  -6.3266570765044600e-08  -2.0062385972388366e-09  1.2813349474473733e-08  8.0250522831519530e-09  3.1320629671820114e-09  9.5546477278695334e-10  2.4727879482113347e-10  5.6616002675468327e-11  1.1759448561264917e-11  2.2526695800264742e-12  4.0257104132810258e-13  6.7668327142366203e-14  1.0762650185750658e-14  1.6267631978302344e-15  2.3435199851239212e-16  3.2140604092311749e-17  8.5359512177722442e-18  6.0444060224110136e-07  -1.5401097478910462e-06  2.3225532315462277e-06  -9.6073060518550882e-07  -4.5925061272950769e-07  1.0527877222190897e-07  1.4550289978466084e-07  6.9135813740084716e-08  2.2984991253750495e-08  6.1951636001989546e-09  1.4418983263859062e-09  2.9996132857279110e-10  5.6975270651610697e-11  1.0020753438270615e-11  1.6476925235273039e-12  2.5495960011094997e-13  3.7287609533384836e-14  5.1667395827661259e-15  6.7867041213260427e-16  8.4551300824672418e-17  1.9920121341090257e-17  4.8353829882951601e-07  -7.7065070455380335e-06  1.7337342972224372e-05  -1.1643901490383529e-05  -2.2931463261475292e-06  1.9863915979517580e-06  1.4273371726976361e-06  5.4443656343935609e-07  1.5557130569163978e-07  3.7029793747896090e-08  7.7223179713248974e-09  1.4521457549307331e-09  2.5069094606019265e-10  4.0199864226362227e-11  6.0339443180173933e-12  8.5176650291117019e-13  1.1333506046744355e-13  1.4212045362236046e-14  1.6743103195207922e-15  1.8537235030918729e-16  3.7426744051377184e-17  -9.3085659176792934e-06  -2.7694538375180164e-05  1.1345127250063761e-04  -1.1849847380736571e-04  1.5865238556008964e-06  2.5172007271916809e-05  1.2483639197470931e-05  3.9115484012380140e-06  9.6160413181245821e-07  2.0119441495636774e-07  3.7332804143364070e-08  6.2916412825364512e-09  9.7720884332083360e-10  1.4114134565181384e-10  1.9050224793783110e-11  2.4063149178549989e-12  2.8380209087192125e-13  3.1020497500524907e-14  3.0908636877112349e-15  2.7469611945158288e-16  3.7880559444559434e-17  -6.0841826880077622e-05  -2.9324414987135851e-05  6.1437932098648812e-04  -1.0499632908981503e-03  2.3890209117954369e-04  2.6362378993501567e-04  9.7986272817411111e-05  2.5355611142114536e-05  5.3303631255579040e-06  9.7089381286707956e-07  1.5840898443341863e-07  2.3590406945186876e-08  3.2402588080214593e-09  4.1239698413838696e-10  4.8600376132417040e-11  5.2648299744733528e-12  5.1461401273604411e-13  4.3390186566162016e-14  2.7497555479678067e-15  4.5461609324017673e-17  -5.1221409540486288e-17  -5.0676495403269819e-05  4.2678398160138386e-04  2.3168600987171794e-03  -8.0263609990756050e-03  4.0962969479710178e-03  2.3944527694899271e-03  6.8286776772379847e-04  1.4476945933608677e-04  2.5655896029848616e-05  3.9979993049838717e-06  5.6174199241375847e-07  7.2019286974326048e-08  8.4485284397327062e-09  9.0084413054316014e-10  8.5437426211517635e-11  6.8000072997023712e-12  3.6846467287216941e-13  -6.6364800632345949e-15  -5.8300390986332580e-15  -1.1187029797568193e-15  -3.1526420588106262e-16  1.2125593793171957e-03  2.3703087835810922e-03  1.1890037410152328e-03  -4.9389373068302773e-02  5.0426537655501986e-02  1.8830832232083608e-02  4.0849624901476240e-03  6.9340615633979509e-04  1.0075427204222698e-04  1.2988405886553534e-05  1.5038561518142367e-06  1.5569742680910573e-07  1.4027805034849260e-08  1.0098898834205463e-09  3.8380190053065356e-11  -4.2408941806386444e-12  -1.3141933651795658e-12  -2.1454033266289159e-13  -2.7521558788860327e-14  -3.0129203149859121e-15  -5.3900450139382252e-16  -2.0755383042205091e-03  -8.1638392637587067e-03  -4.9406064951079028e-02  -1.8048703997181792e-01  4.9748182961721144e-01  1.2147122735914145e-01  1.9254508427549333e-02  2.4895847964747767e-03  2.7857079448046136e-04  2.7133302502619856e-05  2.2117207094416565e-06  1.2807423243916388e-07  -3.8180140161979193e-11  -1.4857230070046511e-09  -2.9382756214931580e-10  -4.0904558195473813e-11  -4.6680620690572447e-12  -4.4455077379632372e-13  -3.3019679401719491e-14  -1.3160299123372750e-15  2.9049809203912018e-16  4.7029721558864318e-04  4.1702517691015730e-03  5.0440915330663867e-02  4.9748429020787138e-01  3.4376846759580988e+00  5.1794805751897288e-01  5.3904766143124026e-02  4.5171877262442425e-03  2.8204560477173332e-04  5.3863351713122530e-06  -2.0248612933632759e-06  -4.4878126697692483e-07  -6.4196664134735203e-08  -7.4009483304724400e-09  -7.0996330073347285e-10  -5.3508963546061169e-11  -2.2245040545268820e-12  1.9366465843982266e-13  6.5217615672150656e-14  1.0844163738563575e-14  2.7420141792304060e-15  5.2305790838396793e-04  2.4184628091792446e-03  1.8830624415669885e-02  1.2147061357639015e-01  5.1794784984481557e-01  -1.5201932487433972e-01  -4.6417354137997038e-02  -7.8767179664708826e-03  -1.0583529076175293e-03  -1.2204998999049313e-04  -1.2262606229379893e-05  -1.0436160661112231e-06  -6.6594821350183214e-08  -1.1967479926302852e-09  5.3253922233855823e-10  1.1948146867671212e-10  1.7482913244419921e-11  2.0683412882107040e-12  2.0477150574447179e-13  1.6522656624690920e-14  1.5891683115304646e-15  1.9505177589636854e-04  6.8124183246740888e-04  4.0833310723032102e-03  1.9254275221388770e-02  5.3904755293310562e-02  -4.6417343222394845e-02  -3.9780235481811678e-04  1.9505507681061315e-03  5.6490029567942118e-04  1.0857370865614163e-04  1.7019948839911993e-05  2.3223035047741570e-06  2.8265485994389498e-07  3.0812285622945471e-08  2.9621542461646959e-09  2.3817488503781189e-10  1.3166015062558561e-11  -1.7024843638314713e-13  -1.9184730970692414e-13  -3.7285415629731533e-14  -1.0346732147460181e-14  5.0593235889949130e-05  1.4177588785468988e-04  6.9299112650732426e-04  2.4896104471670709e-03  4.5172032428482198e-03  -7.8767145035405096e-03  1.9505505043043185e-03  4.4388289699249411e-04  -7.2718167548273530e-06  -2.2371661012043370e-05  -6.9005190499423125e-06  -1.4664753752968783e-06  -2.5638969010959232e-07  -3.9219450078215532e-08  -5.3953305062921048e-09  -6.7543629622704803e-10  -7.7040472870588971e-11  -7.9235765000134563e-12  -7.1265330771175909e-13  -5.2275257145948445e-14  -3.8757854300837201e-15  1.0656269800951677e-05  2.4468739379347576e-05  1.0075335431159200e-04  2.7859803885549138e-04  2.8204876921480906e-04  -1.0583531132971550e-03  5.6490004254508769e-04  -7.2718287034622064e-06  -2.7848238970598042e-05  -5.0042771351962773e-06  2.9124575350727109e-08  2.4870236640022455e-07  8.4299278770478740e-08  1.9546809356887103e-08  3.7260002106335886e-09  6.2214387643717708e-10  9.3735422142751132e-11  1.2937360116583342e-11  1.6472407206135298e-12  1.9687923902283012e-13  4.2084730537571980e-14  1.9441102250454512e-06  3.6732403972129281e-06  1.3021801661687921e-05  2.7140001460551580e-05  5.3858048123562911e-06  -1.2205025918490004e-04  1.0857366485416069e-04  -2.2371652329700351e-05  -5.0042754695853857e-06  5.5712402293736619e-07  3.5860548920287853e-07  6.4047270455752342e-08  1.4323588915988812e-09  -2.6638834737545906e-09  -1.0202702961699763e-09  -2.5693114260693934e-10  -5.2767047700414231e-11  -9.4750308642119258e-12  -1.5369095945493373e-12  -2.3316665850780634e-13  -6.4083116272697411e-14  3.1764637509058956e-07  4.8936959250159549e-07  1.5183655571835025e-06  2.2120834389269973e-06  -2.0252739640404182e-06  -1.2262650840004736e-05  1.7019957145880356e-05  -6.9005159123799938e-06  2.9124946757908012e-08  3.5860545648488860e-07  4.5109538880364306e-08  -9.2889887120464010e-09  -4.6229850410736744e-09  -8.7178950348522045e-10  -4.7841870509624541e-11  2.6785846056336426e-11  1.2128351660629774e-11  3.3242476294533473e-12  7.3163257073775394e-13  1.4274026266299937e-13  4.9006230950162047e-14  4.7365269475548818e-08  5.8002810383058228e-08  1.5989851038459244e-07  1.2772772203014158e-07  -4.4888564656151251e-07  -1.0436150419631464e-06  2.3223208741452783e-06  -1.4664850296568606e-06  2.4870550608974993e-07  6.4047324601182510e-08  -9.2892507888725069e-09  -4.6852111562634726e-09  -4.6373010760978804e-10  1.2755894362031289e-10  5.9897226188090114e-11  1.2154852873075969e-11  1.0433570940647077e-12  -2.3895988196291155e-13  -1.4037811208397021e-13  -4.3148718254550004e-14  -2.0178690791172720e-14  6.5144703313504056e-09  6.0093215417835928e-09  1.5017626799702608e-08  -2.0648095973059478e-10  -6.4218296172008213e-08  -6.6619966070038527e-08  2.8274578099448990e-07  -2.5647808866704176e-07  8.4337207901354883e-08  1.4289848367771143e-09  -4.6253443247675410e-09  -4.6350346987523232e-10  1.7608423575372666e-10  6.0394516534058054e-11  5.5230225654162498e-12  -1.6138389656548833e-12  -7.7541045543411000e-13  -1.7016114115462276e-13  -1.9312758932952560e-14  1.6617360985889802e-15  3.1861657125485428e-15  8.4072600764175477e-10  5.1509807597314999e-10  1.2374504651995164e-09  -1.5414733240970694e-09  -7.5140479916357208e-09  -1.2623032996603490e-09  3.1373672581666295e-08  -3.9938973632108176e-08  1.9941466129147040e-08  -2.7369402207300005e-09  -8.8749530521451870e-10  1.3250810366556760e-10  6.1651452495140013e-11  2.5989040843822736e-12  -2.7681065668075112e-12  -8.0422082366427189e-13  -7.2271749174707168e-14  2.0538397240530406e-14  1.0254950789545137e-14  2.4377583397932765e-15  6.3909963895607417e-16  2.2485539021934323e-10  5.8916330453141175e-11  1.5361660635367400e-10  -6.1830848688617630e-10  -1.4320082772038463e-09  1.0683607969925525e-09  6.0051706130768913e-09  -1.0929512899142521e-08  7.5540053279830232e-09  -2.0751824053514977e-09  -9.3403906583979730e-11  1.2127742451829473e-10  1.0973538899250950e-11  -5.4155569840723771e-12  -1.4908643597321168e-12  -1.5280916002884225e-14  7.6105988566782784e-14  2.1200558129898571e-14  2.1724032313674464e-15  -4.4246227691215104e-16  -4.6536659764122092e-16  1.3934803029368553e-08  -9.3518276775010112e-09  5.7886712873294310e-09  1.2340725973140555e-09  -1.3100786429972621e-09  -5.9011333393904461e-10  5.1947745384308096e-11  1.5659213550525639e-10  9.2007096662082126e-11  3.6653565737870607e-11  1.1738616981629543e-11  3.2331525694568144e-12  7.9392097371759012e-13  1.7771774023879953e-13  3.6812009983476394e-14  7.1313564050246770e-15  1.3021850959936234e-15  2.2544416642341195e-16  3.7177188909969881e-17  5.8170683389667169e-18  2.0091190535941502e-18  4.2567743195151417e-08  -3.7356973682731091e-08  3.0765236313980185e-08  -3.2123187634335674e-10  -7.2223781687482528e-09  -1.6177367097585177e-09  9.0441653277215894e-10  8.5638321336189395e-10  3.9775496289941194e-10  1.3684227372990831e-10  3.9004470065157123e-11  9.6996908959160320e-12  2.1674693131861421e-12  4.4345310776163831e-13  8.4132469614867997e-14  1.4933664670989068e-14  2.4956191574443067e-15  3.9432984748418405e-16  5.9056400023992637e-17  8.2610229029322346e-18  2.2971427915665600e-18  1.8780323485926051e-07  -2.5441969395461521e-07  2.7928106562673990e-07  -5.7487784701713046e-08  -6.3306855717114123e-08  -1.9356016712987050e-09  1.2857960545190631e-08  8.0407324654026661e-09  3.1360832878016039e-09  9.5627450012917566e-10  2.4740666195871079e-10  5.6629945437204468e-11  1.1759603295622651e-11  2.2522316392759355e-12  4.0241643193736005e-13  6.7630366243777629e-14  1.0754803893446546e-14  1.6253133952212867e-15  2.3410589699829923e-16  3.2104881022896858e-17  8.5184403441305641e-18  6.0072899119180833e-07  -1.5367217044473189e-06  2.3226548772768065e-06  -9.6385104075622260e-07  -4.5892021674118419e-07  1.0610617688317825e-07  1.4587888584694458e-07  6.9243155544292016e-08  2.3007712525741066e-08  6.1988204630609838e-09  1.4422949765473031e-09  2.9996391679323522e-10  5.6962335595909366e-11  1.0016315601747760e-11  1.6466271826285127e-12  2.5474434457852227e-13  3.7248769314289139e-14  5.1603084987754890e-15  6.7767918929876463e-16  8.4414239803698892e-17  1.9865455082190772e-17  4.6879501423444028e-07  -7.6795126110342261e-06  1.7325975497575466e-05  -1.1667718327130185e-05  -2.2836888659577808e-06  1.9946581723412603e-06  1.4301792676347370e-06  5.4508531931543590e-07  1.5567880734049236e-07  3.7041514285578249e-08  7.7223936969702552e-09  1.4517734825370362e-09  2.5056621191444869e-10  4.0170749802439319e-11  6.0282449081510852e-12  8.5077333692058586e-13  1.1317675712742415e-13  1.4188632392727107e-14  1.6710738933671012e-15  1.8496060654936600e-16  3.7287395137568534e-17  -9.3365469012517552e-06  -2.7523671928834110e-05  1.1327675050417575e-04  -1.1864337096950973e-04  1.7246328186364036e-06  2.5244845593697989e-05  1.2502575677010278e-05  3.9148266294288868e-06  9.6196398666415755e-07  2.0119676560505604e-07  3.7321800817194045e-08  6.2880634520322076e-09  9.7640247398489369e-10  1.4098949037711474e-10  1.9024851684369432e-11  2.4024500020068481e-12  2.8325794508113482e-13  3.0949221731139831e-14  3.0821687780022220e-15  2.7370829616166521e-16  3.7617705705018884e-17  -6.0709385875675120e-05  -2.8567467624581560e-05  6.1263049470671588e-04  -1.0504784765366381e-03  2.4052020283640951e-04  2.6419134936990079e-04  9.8092280562803711e-05  2.5367360107598071e-05  5.3304480666996953e-06  9.7055702458865935e-07  1.5830368193631053e-07  2.3567732309051337e-08  3.2361955334442748e-09  4.1175326162490403e-10  4.8507781671275395e-11  5.2525845649550680e-12  5.1311890004251762e-13  4.3222174090549895e-14  2.7325989122775677e-15  4.3873253860418079e-17  -5.1451111343932700e-17  -4.9589395858985114e-05  4.2778863401757083e-04  2.3041407959275154e-03  -8.0240731869722914e-03  4.1131981557821617e-03  2.3982879418486440e-03  6.8330165176712625e-04  1.4477418052761580e-04  2.5645129517185194e-05  3.9947946940407828e-06  5.6109299158038073e-07  7.1910409746098028e-08  8.4324447890120919e-09  8.9869821433535854e-10  8.5176328754169965e-11  6.7710758223968338e-12  3.6558679267627017e-13  -6.8833116463347968e-15  -5.8461575822511171e-15  -1.1191232284281695e-15  -3.1471950193865871e-16  1.2114348620021729e-03  2.3574732753711700e-03  1.1352103359554434e-03  -4.9330070838149519e-02  5.0597307302723382e-02  1.8852374340702235e-02  4.0854828264940326e-03  6.9305054254574332e-04  1.0065277879592992e-04  1.2969493175601650e-05  1.5009601846443971e-06  1.5530898075252033e-07  1.3981132269048842e-08  1.0048555515317586e-09  3.7901107644488493e-11  -4.2788988567504930e-12  -1.3162226945100386e-12  -2.1449849323843522e-13  -2.7488758061149122e-14  -3.0067763806531151e-15  -5.3653186496286726e-16  -2.0800602911268478e-03  -8.1615490931473463e-03  -4.9346750726435594e-02  -1.8004591562053082e-01  4.9939758513833454e-01  1.2156994356970559e-01  1.9244515085230458e-02  2.4863044242430694e-03  2.7801847477318560e-04  2.7059103246022185e-05  2.2030926808226429e-06  1.2719293954120017e-07  -1.1538569695303632e-10  -1.4909770404143976e-09  -2.9398128379972173e-10  -4.0874054217100962e-11  -4.6601813748540216e-12  -4.4333731122697471e-13  -3.2870532478443213e-14  -1.3002340862216934e-15  2.9331688003462618e-16  4.7466266425078002e-04  4.1874184858248014e-03  5.0611711356226080e-02  4.9940004743784155e-01  3.4618698590310335e+00  5.1843908257379667e-01  5.3820456535647695e-02  4.5027509968615393e-03  2.8043613875692810e-04  5.2397606445411196e-06  -2.0354917587882783e-06  -4.4922929310517342e-07  -6.4165863226269499e-08  -7.3899289616120301e-09  -7.0815848613344427e-10  -5.3281199839569791e-11  -2.2005628286446172e-12  1.9573171082779145e-13  6.5345088161217037e-14  1.0845386219793074e-14  2.7358484643846900e-15  5.2475733235286435e-04  2.4221872778213368e-03  1.8852140673012423e-02  1.2156932563761269e-01  5.1843887437448555e-01  -1.5355279578139536e-01  -4.6575571652489101e-02  -7.8855779549652262e-03  -1.0582421381050717e-03  -1.2192822145639921e-04  -1.2239800666577149e-05  -1.0404859203704037e-06  -6.6235677278509957e-08  -1.1616122626650448e-09  5.3534501082983650e-10  1.1962852734434233e-10  1.7479176850468351e-11  2.0658539631505553e-12  2.0431871964639676e-13  1.6460435972609402e-14  1.5711148742165311e-15  1.9538067466666172e-04  6.8158991852477807e-04  4.0838454354958122e-03  1.9244282315728604e-02  5.3820445922944091e-02  -4.6575560681423572e-02  -3.3659855476633673e-04  1.9649514534703684e-03  5.6685853370650179e-04  1.0877218593874726e-04  1.7033966593963945e-05  2.3224712507176342e-06  2.8249004834394657e-07  3.0773848652981934e-08  2.9560684902818310e-09  2.3738081565273646e-10  1.3076669221989716e-11  -1.7888597685604558e-13  -1.9252384455144849e-13  -3.7319509382457253e-14  -1.0329224701575711e-14  5.0631017302293445e-05  1.4175207919716251e-04  6.9263670265442211e-04  2.4863306099327043e-03  4.5027665718017666e-03  -7.8855744938733843e-03  1.9649511862468781e-03  4.4327929444382597e-04  -7.9686149970349760e-06  -2.2537468739472968e-05  -6.9277389655028576e-06  -1.4700416515307935e-06  -2.5677018868293411e-07  -3.9250005025232644e-08  -5.3963585133284540e-09  -6.7519855868147824e-10  -7.6970617720090445e-11  -7.9112814476583274e-12  -7.1090433227784634e-13  -5.2054620391559104e-14  -3.8146496027769646e-15  1.0656932843642568e-05  2.4451216009937971e-05  1.0065290295479574e-04  2.7804582292216844e-04  2.8043928924273567e-04  -1.0582423489769821e-03  5.6685827975850992e-04  -7.9686268336297178e-06  -2.7961684617443549e-05  -4.9935138915924735e-06  3.7023140217798970e-08  2.5074020790295379e-07  8.4678645997755336e-08  1.9604618059766036e-08  3.7334849427365379e-09  6.2296257859770615e-10  9.3806075078947694e-11  1.2940715486115690e-11  1.6468962701494921e-12  1.9674040982680138e-13  4.1952763584038430e-14  1.9431626611939683e-06  3.6687369803397568e-06  1.3003249461852812e-05  2.7065792175929986e-05  5.2392215219675888e-06  -1.2192849135038861e-04  1.0877214228135129e-04  -2.2537459982064290e-05  -4.9935122243318413e-06  5.6610866156565680e-07  3.5980213590709870e-07  6.3934082283353844e-08  1.3421451408829771e-09  -2.6893200728794662e-09  -1.0254899465327146e-09  -2.5781679750389633e-10  -5.2896962743334377e-11  -9.4917163358911210e-12  -1.5387622728431281e-12  -2.3333315086794301e-13  -6.3983053964202453e-14  3.1734162902205514e-07  4.8850664431468770e-07  1.5155594719865035e-06  2.2034431675539341e-06  -2.0359061420304313e-06  -1.2239845020613257e-05  1.7033974984800802e-05  -6.9277358203802201e-06  3.7023509139874740e-08  3.5980210264125829e-07  4.4840815497827615e-08  -9.4009175009654814e-09  -4.6382351815015544e-09  -8.7089607301757383e-10  -4.6823387028693483e-11  2.7102489609658928e-11  1.2199067260155718e-11  3.3373235351064412e-12  7.3373864466789814e-13  1.4304371126821100e-13  4.8987895318552069e-14  4.7299522243703608e-08  5.7863000116559251e-08  1.5952845858754739e-07  1.2684190557064776e-07  -4.4933364807702734e-07  -1.0404847435024602e-06  2.3224886210261440e-06  -1.4700513162142973e-06  2.5074335396515785e-07  6.3934134570739169e-08  -9.4011799203192703e-09  -4.6937255550178264e-09  -4.5971453611146863e-10  1.2898908390879837e-10  6.0109407683246404e-11  1.2152171453747124e-11  1.0321952820870554e-12  -2.4285467851955480e-13  -1.4132082886354453e-13  -4.3338235447085382e-14  -2.01996514523732